 VARIABLES       =                 X                 Y                 Z              ROCK              PRES              TEMP             SAT_G             SAT_L         X_WATER_G           X_AIR_G         X_WATER_L           X_AIR_L             REL_G             REL_L           PCAP_GL             DEN_G             DEN_L               POR
 ZONE T=" 0.9300000E+03 SEC"  I =        9 J =        0 K =       30
                    0.37500000000E-001  0.00000000000E+000 -0.15000000000E+001                   2  0.11177086905E+006  0.20141974763E+002  0.49933476312E+000  0.50066523688E+000  0.13239597772E-001  0.98676040223E+000  0.99998241230E+000  0.17587695466E-004  0.18666949111E+000  0.61433145667E-001  0.00000000000E+000  0.13167976176E+001  0.99829862488E+003  0.10001045019E-002
                    0.37500000000E-001  0.00000000000E+000 -0.27500000000E+001                   2  0.10721225355E+006  0.18058696826E+002  0.49953762151E+000  0.50046237849E+000  0.12111441509E-001  0.98788855849E+000  0.99998309891E+000  0.16901090352E-004  0.18692252797E+000  0.61336043704E-001  0.00000000000E+000  0.12729879785E+001  0.99870577738E+003  0.10000589397E-002
                    0.37500000000E-001  0.00000000000E+000 -0.47500000000E+001                   2  0.10429214200E+006  0.16527149555E+002  0.49969170225E+000  0.50030829775E+000  0.11294778871E-001  0.98870522113E+000  0.99998353758E+000  0.16462418681E-004  0.18711485058E+000  0.61262362070E-001  0.00000000000E+000  0.12454731807E+001  0.99897382697E+003  0.10000294037E-002
                    0.37500000000E-001  0.00000000000E+000 -0.85000000000E+001                   2  0.10266591105E+006  0.15570952044E+002  0.49980032207E+000  0.50019967793E+000  0.10790289003E-001  0.98920971100E+000  0.99998378110E+000  0.16218902843E-004  0.18725049604E+000  0.61210457250E-001  0.00000000000E+000  0.12304856785E+001  0.99912722653E+003  0.10000133972E-002
                    0.37500000000E-001  0.00000000000E+000 -0.13500000000E+002                   2  0.10318690735E+006  0.16774232053E+002  0.49976260949E+000  0.50023739051E+000  0.11598707249E-001  0.98840129275E+000  0.99998372002E+000  0.16279978078E-004  0.18720339394E+000  0.61228475001E-001  0.00000000000E+000  0.12309991950E+001  0.99893171301E+003  0.10000184493E-002
                    0.37500000000E-001  0.00000000000E+000 -0.18500000000E+002                   2  0.10328212604E+006  0.17413300452E+002  0.49977023923E+000  0.50022976077E+000  0.12070502603E-001  0.98792949740E+000  0.99998371739E+000  0.16282609513E-004  0.18721292276E+000  0.61224829479E-001  0.00000000000E+000  0.12290769358E+001  0.99882082025E+003  0.10000192377E-002
                    0.37500000000E-001  0.00000000000E+000 -0.23500000000E+002                   2  0.10296598482E+006  0.17451648275E+002  0.49983837958E+000  0.50016162042E+000  0.12137441418E-001  0.98786255858E+000  0.99998376898E+000  0.16231016772E-004  0.18729803570E+000  0.61192278475E-001  0.00000000000E+000  0.12251038179E+001  0.99881386711E+003  0.10000166681E-002
                    0.37500000000E-001  0.00000000000E+000 -0.28500000000E+002                   2  0.10268140823E+006  0.17638829700E+002  0.49990099129E+000  0.50009900871E+000  0.12317171863E-001  0.98768282814E+000  0.99998381853E+000  0.16181466538E-004  0.18737626209E+000  0.61162379238E-001  0.00000000000E+000  0.12207997001E+001  0.99878026081E+003  0.10000135813E-002
                    0.37500000000E-001  0.00000000000E+000 -0.33500000000E+002                   2  0.13668069936E+006  0.17630572861E+002  0.50037561343E+000  0.49962438657E+000  0.92312933899E-002  0.99076870661E+000  0.99997835319E+000  0.21646807315E-004  0.18796984745E+000  0.60936064126E-001  0.00000000000E+000  0.16280916046E+001  0.99879732306E+003  0.10003535419E-002
                    0.37500000000E-001  0.00000000000E+000 -0.38500000000E+002                   2  0.17529925938E+006  0.18113164140E+002  0.50086494713E+000  0.49913505287E+000  0.74117173697E-002  0.99258828263E+000  0.99997215552E+000  0.27844478243E-004  0.18858293735E+000  0.60703349761E-001  0.00000000000E+000  0.20869307993E+001  0.99872683911E+003  0.10007401193E-002
                    0.37500000000E-001  0.00000000000E+000 -0.42250000000E+002                   2  0.19585547510E+006  0.16870270099E+002  0.50132105950E+000  0.49867894050E+000  0.61279602700E-002  0.99387203973E+000  0.99996882606E+000  0.31173936822E-004  0.18915541468E+000  0.60486996568E-001  0.00000000000E+000  0.23434572918E+001  0.99895791650E+003  0.10009455779E-002
                    0.37500000000E-001  0.00000000000E+000 -0.44250000000E+002                   2  0.20455288324E+006  0.16581112856E+002  0.50155742690E+000  0.49844257310E+000  0.57592544476E-002  0.99424074555E+000  0.99996742241E+000  0.32577594973E-004  0.18945246855E+000  0.60375090640E-001  0.00000000000E+000  0.24505116750E+001  0.99901090709E+003  0.10010327935E-002
                    0.37500000000E-001  0.00000000000E+000 -0.45500000000E+002                   2  0.21004559455E+006  0.16098835046E+002  0.50177721680E+000  0.49822278320E+000  0.54377490644E-002  0.99456225094E+000  0.99996653032E+000  0.33469675390E-004  0.18972892371E+000  0.60271163516E-001  0.00000000000E+000  0.25209980228E+001  0.99909295104E+003  0.10010877644E-002
                    0.37500000000E-001  0.00000000000E+000 -0.46500000000E+002                   2  0.21534379131E+006  0.16532247688E+002  0.50192197466E+000  0.49807802534E+000  0.54526579334E-002  0.99454734207E+000  0.99996568691E+000  0.34313086991E-004  0.18991112607E+000  0.60202783673E-001  0.00000000000E+000  0.25806979788E+001  0.99902405202E+003  0.10011406780E-002
                    0.37500000000E-001  0.00000000000E+000 -0.47500000000E+002                   2  0.22094633634E+006  0.16966587729E+002  0.50207537446E+000  0.49792462554E+000  0.54631824551E-002  0.99453681754E+000  0.99996479480E+000  0.35205199725E-004  0.19010431299E+000  0.60130380990E-001  0.00000000000E+000  0.26438588533E+001  0.99895289984E+003  0.10011966864E-002
                    0.37500000000E-001  0.00000000000E+000 -0.48500000000E+002                   2  0.22666454296E+006  0.17402012358E+002  0.50223072639E+000  0.49776927361E+000  0.54743229839E-002  0.99452567702E+000  0.99996388432E+000  0.36115675012E-004  0.19030007076E+000  0.60057119178E-001  0.00000000000E+000  0.27082008943E+001  0.99887938999E+003  0.10012539909E-002
                    0.37500000000E-001  0.00000000000E+000 -0.49500000000E+002                   2  0.23220634715E+006  0.17845256383E+002  0.50238805264E+000  0.49761194736E+000  0.54953793179E-002  0.99450462068E+000  0.99996300258E+000  0.36997420929E-004  0.19049843165E+000  0.59982990115E-001  0.00000000000E+000  0.27701539760E+001  0.99880216760E+003  0.10013096888E-002
                    0.37500000000E-001  0.00000000000E+000 -0.50500000000E+002                   2  0.23680207341E+006  0.18281502623E+002  0.50254256890E+000  0.49745743110E+000  0.55388217624E-002  0.99446117824E+000  0.99996227298E+000  0.37727016360E-004  0.19069336256E+000  0.59910247531E-001  0.00000000000E+000  0.28206774359E+001  0.99872356570E+003  0.10013558826E-002
                    0.37500000000E-001  0.00000000000E+000 -0.51500000000E+002                   2  0.13376623361E+006  0.14402522191E+002  0.30495607188E-002  0.99695043928E+000  0.76664967795E-002  0.99233350322E+000  0.99997876132E+000  0.21238678581E-004  0.00000000000E+000  0.97324797852E+000  0.00000000000E+000  0.16127804274E+001  0.99931489589E+003  0.10001752704E-002
                    0.37500000000E-001  0.00000000000E+000 -0.52500000000E+002                   2  0.77768200087E+005  0.14845551181E+002  0.25851411414E-002  0.99741485886E+000  0.13618562775E-001  0.98638143722E+000  0.99998777032E+000  0.12229683585E-004  0.00000000000E+000  0.97658457040E+000  0.00000000000E+000  0.93283677708E+000  0.99922524195E+003  0.99951436394E-003
                    0.37500000000E-001  0.00000000000E+000 -0.53500000000E+002                   2  0.59460940861E+005  0.15286892462E+002  0.25253443842E-002  0.99747465562E+000  0.18377444854E-001  0.98162255515E+000  0.99999072092E+000  0.92790759248E-005  0.00000000000E+000  0.97702240144E+000  0.00000000000E+000  0.71011717382E+000  0.99915092228E+003  0.99923134084E-003
                    0.37500000000E-001  0.00000000000E+000 -0.54500000000E+002                   2  0.54809829005E+005  0.15725984661E+002  0.26145343162E-002  0.99738546568E+000  0.20533226639E-001  0.97946677336E+000  0.99999147654E+000  0.85234648562E-005  0.00000000000E+000  0.97637008537E+000  0.00000000000E+000  0.65273293799E+000  0.99908090058E+003  0.99908493183E-003
                    0.37500000000E-001  0.00000000000E+000 -0.55500000000E+002                   2  0.53741477397E+005  0.16160400263E+002  0.27476715079E-002  0.99725232849E+000  0.21544443688E-001  0.97845555631E+000  0.99999165635E+000  0.83436532146E-005  0.00000000000E+000  0.97540441195E+000  0.00000000000E+000  0.63866271999E+000  0.99901096174E+003  0.99897415419E-003
                    0.37500000000E-001  0.00000000000E+000 -0.56500000000E+002                   2  0.53318131713E+005  0.16594764214E+002  0.28923716632E-002  0.99710762834E+000  0.22335709422E-001  0.97766429058E+000  0.99999173267E+000  0.82673250917E-005  0.00000000000E+000  0.97436526068E+000  0.00000000000E+000  0.63238290932E+000  0.99893907014E+003  0.99886989518E-003
                    0.37500000000E-001  0.00000000000E+000 -0.57750000000E+002                   2  0.54134551688E+005  0.19372590883E+002  0.26759501938E-002  0.99732404981E+000  0.26264289903E-001  0.97373571010E+000  0.99999165936E+000  0.83406420050E-005  0.00000000000E+000  0.97592344886E+000  0.00000000000E+000  0.63448219990E+000  0.99842911878E+003  0.99882883498E-003
                    0.37500000000E-001  0.00000000000E+000 -0.59750000000E+002                   2  0.55549845265E+005  0.21689641836E+002  0.23677833294E-002  0.99763221667E+000  0.29589265553E-001  0.97041073445E+000  0.99999148735E+000  0.85126453024E-005  0.00000000000E+000  0.97818598678E+000  0.00000000000E+000  0.64467906844E+000  0.99793853643E+003  0.99867490990E-003
                    0.37500000000E-001  0.00000000000E+000 -0.63500000000E+002                   2  0.55804282567E+005  0.21888465150E+002  0.23053323708E-002  0.99769466763E+000  0.29818631959E-001  0.97018136804E+000  0.99999145155E+000  0.85484526672E-005  0.00000000000E+000  0.97865134868E+000  0.00000000000E+000  0.64710751864E+000  0.99789383599E+003  0.99831936322E-003
                    0.37500000000E-001  0.00000000000E+000 -0.68500000000E+002                   2  0.56730551974E+005  0.22369680294E+002  0.20581186419E-002  0.99794188136E+000  0.30212279250E-001  0.96978772075E+000  0.99999131520E+000  0.86847954364E-005  0.00000000000E+000  0.98051859101E+000  0.00000000000E+000  0.65662442150E+000  0.99778408292E+003  0.99783940690E-003
                    0.37500000000E-001  0.00000000000E+000 -0.76000000000E+002                   2  0.59971397316E+005  0.24187858427E+002  0.12599393093E-002  0.99874006069E+000  0.31932269305E-001  0.96806773070E+000  0.99999084467E+000  0.91553314514E-005  0.00000000000E+000  0.98689114947E+000  0.00000000000E+000  0.68918961236E+000  0.99734790637E+003  0.99714040488E-003
                    0.37500000000E-001  0.00000000000E+000 -0.86000000000E+002                   2  0.62916860768E+005  0.24603813707E+002  0.54770353160E-003  0.99945229647E+000  0.31191981940E-001  0.96880801806E+000  0.99999038343E+000  0.96165733164E-005  0.00000000000E+000  0.99331088256E+000  0.00000000000E+000  0.72234715993E+000  0.99724444908E+003  0.99619243959E-003
                    0.37500000000E-001  0.00000000000E+000 -0.93500000000E+002                   2  0.62968531089E+005  0.23352305262E+002  0.47906664681E-003  0.99952093335E+000  0.28867336964E-001  0.97113266304E+000  0.99999033913E+000  0.96608739394E-005  0.00000000000E+000  0.99399638427E+000  0.00000000000E+000  0.72699339742E+000  0.99755452802E+003  0.99545948050E-003
                    0.37500000000E-001  0.00000000000E+000 -0.97500000000E+002                   2  0.60960421835E+005  0.21379439308E+002  0.89577289918E-003  0.99910422710E+000  0.26405443791E-001  0.97359455621E+000  0.99999060979E+000  0.93902053866E-005  0.00000000000E+000  0.99004786326E+000  0.00000000000E+000  0.70955961036E+000  0.99801007885E+003  0.99504368136E-003
                    0.37500000000E-001  0.00000000000E+000 -0.10000000000E+003                   2  0.57989501660E+005  0.18779230321E+002  0.15377072504E-002  0.99846229275E+000  0.23589108150E-001  0.97641089185E+000  0.99999102657E+000  0.89734314196E-005  0.00000000000E+000  0.98460320967E+000  0.00000000000E+000  0.68213278719E+000  0.99854725200E+003  0.99475741314E-003
                    0.37500000000E-001  0.00000000000E+000 -0.10200000000E+003                   1  0.10634077295E+007  0.17702360425E+002  0.00000000000E+000  0.10000000000E+001  0.00000000000E+000  0.00000000000E+000  0.99999000000E+000  0.99999997474E-005  0.00000000000E+000  0.10000000000E+001  0.00000000000E+000  0.12725490153E+002  0.99920844727E+003  0.30138998272E+000
                    0.37500000000E-001  0.00000000000E+000 -0.10500000000E+003                   1  0.10653068839E+007  0.17761141990E+002  0.00000000000E+000  0.10000000000E+001  0.00000000000E+000  0.00000000000E+000  0.99999000000E+000  0.99999997474E-005  0.00000000000E+000  0.10000000000E+001  0.00000000000E+000  0.12745623305E+002  0.99919858603E+003  0.30130707541E+000
                    0.37500000000E-001  0.00000000000E+000 -0.11100000000E+003                   1  0.10690338886E+007  0.17884898304E+002  0.00000000000E+000  0.10000000000E+001  0.00000000000E+000  0.00000000000E+000  0.99999000000E+000  0.99999997474E-005  0.00000000000E+000  0.10000000000E+001  0.00000000000E+000  0.12784735845E+002  0.99917757053E+003  0.30114117174E+000
                    0.37500000000E-001  0.00000000000E+000 -0.12300000000E+003                   1  0.10765944830E+007  0.18132523734E+002  0.00000000000E+000  0.10000000000E+001  0.00000000000E+000  0.00000000000E+000  0.99999000000E+000  0.99999997474E-005  0.00000000000E+000  0.10000000000E+001  0.00000000000E+000  0.12864129205E+002  0.99913504034E+003  0.30081011276E+000
                    0.37500000000E-001  0.00000000000E+000 -0.14700000000E+003                   1  0.10929864589E+007  0.18628204808E+002  0.00000000000E+000  0.10000000000E+001  0.00000000000E+000  0.00000000000E+000  0.99999000000E+000  0.99999997474E-005  0.00000000000E+000  0.10000000000E+001  0.00000000000E+000  0.13037656004E+002  0.99904838212E+003  0.30015251115E+000
                    0.37500000000E-001  0.00000000000E+000 -0.19500000000E+003                   3  0.17239717429E+007  0.19625000000E+002  0.00000000000E+000  0.10000000000E+001  0.00000000000E+000  0.00000000000E+000  0.99999000000E+000  0.99999997474E-005  0.00000000000E+000  0.10000000000E+001  0.00000000000E+000  0.20499272479E+002  0.99913720004E+003  0.30063500998E+000
                    0.37500000000E-001  0.00000000000E+000 -0.50000000000E-005                   5  0.10132500000E+006  0.15000000000E+002  0.10000000000E+001  0.00000000000E+000  0.52499771120E-002  0.99475002289E+000  0.00000000000E+000  0.00000000000E+000  0.10000000000E+001  0.00000000000E+000  0.00000000000E+000  0.12208885817E+001  0.99921336741E+003  0.99000001000E+000
                    0.37500000000E-001  0.00000000000E+000 -0.25000000000E+000                   4  0.10138869142E+006  0.15011270862E+002  0.89206032646E+000  0.10793967354E+000  0.10538497391E-001  0.98946150261E+000  0.99998397637E+000  0.16023631820E-004  0.98015276154E+000  0.43963822072E-006 -0.17542941265E+006  0.12177220676E+001  0.99921172291E+003  0.30000002051E+000
                    0.37500000000E-001  0.00000000000E+000 -0.75000000000E+000                   4  0.10134416642E+006  0.15039698968E+002  0.89610576183E+000  0.10389423817E+000  0.10562605722E-001  0.98943739428E+000  0.99998398403E+000  0.16015972614E-004  0.99026463471E+000  0.51858076276E-007 -0.19005706272E+006  0.12170495901E+001  0.99920747317E+003  0.30000006937E+000
                    0.79290000000E-001  0.00000000000E+000 -0.25000000000E+000                   1  0.10133208734E+006  0.15011273100E+002  0.89664084267E+000  0.10335915733E+000  0.10544423344E-001  0.98945557666E+000  0.99998398547E+000  0.16014533011E-004  0.99160225442E+000  0.33283089967E-007 -0.19214359092E+006  0.12170378754E+001  0.99921169639E+003  0.30000001000E+000
                    0.79290000000E-001  0.00000000000E+000 -0.75000000000E+000                   1  0.10133716405E+006  0.15043574291E+002  0.89606762042E+000  0.10393237958E+000  0.10565994164E-001  0.98943400584E+000  0.99998398522E+000  0.16014778519E-004  0.99016928801E+000  0.53396937919E-007 -0.18990977122E+006  0.12169466538E+001  0.99920689264E+003  0.30000007012E+000
                    0.79290000000E-001  0.00000000000E+000 -0.15000000000E+001                   1  0.10134620116E+006  0.20495460226E+002  0.89690976305E+000  0.10309023695E+000  0.14939331188E-001  0.98506066881E+000  0.99998409637E+000  0.15903627417E-004  0.99227452268E+000  0.25911944403E-007 -0.19320666361E+006  0.11913287820E+001  0.99821971530E+003  0.30000004140E+000
                    0.79290000000E-001  0.00000000000E+000 -0.27500000000E+001                   1  0.10135936228E+006  0.18338060859E+002  0.89481821722E+000  0.10518178278E+000  0.13045037128E-001  0.98695496287E+000  0.99998404562E+000  0.15954383891E-004  0.98704608478E+000  0.12218781233E-006 -0.18518785335E+006  0.12016656625E+001  0.99865104681E+003  0.30000010088E+000
                    0.79290000000E-001  0.00000000000E+000 -0.47500000000E+001                   1  0.10138214670E+006  0.16738652431E+002  0.89286774164E+000  0.10713225836E+000  0.11779801545E-001  0.98822019846E+000  0.99998400943E+000  0.15990566043E-004  0.98217076501E+000  0.31866853981E-006 -0.17819622059E+006  0.12094853760E+001  0.99893691907E+003  0.30000019049E+000
                    0.79290000000E-001  0.00000000000E+000 -0.85000000000E+001                   1  0.10142608798E+006  0.15722147925E+002  0.88966002291E+000  0.11033997709E+000  0.11030159872E-001  0.98896984013E+000  0.99998398316E+000  0.16016843178E-004  0.97415434774E+000  0.97126628673E-006 -0.16761199220E+006  0.12148144119E+001  0.99910301295E+003  0.30000031031E+000
                    0.79290000000E-001  0.00000000000E+000 -0.13500000000E+002                   1  0.10148684284E+006  0.16912779315E+002  0.88219804254E+000  0.11780195746E+000  0.11899385108E-001  0.98810061489E+000  0.99998399601E+000  0.16003993171E-004  0.95551689870E+000  0.49602288425E-005 -0.14666218801E+006  0.12099207141E+001  0.99890728744E+003  0.30000048983E+000
                    0.79290000000E-001  0.00000000000E+000 -0.18500000000E+002                   1  0.10154722321E+006  0.17506983636E+002  0.86046347753E+000  0.13953652247E+000  0.12351725537E-001  0.98764827446E+000  0.99998399816E+000  0.16001838176E-004  0.90139413859E+000  0.54476241891E-004 -0.10513810730E+006  0.12078375591E+001  0.99880336267E+003  0.30000069978E+000
                    0.79290000000E-001  0.00000000000E+000 -0.23500000000E+002                   1  0.10160645911E+006  0.17595367423E+002  0.80534925005E+000  0.19465074995E+000  0.12414098254E-001  0.98758590175E+000  0.99998399044E+000  0.16009562167E-004  0.76648949860E+000  0.75359701405E-003 -0.56788482441E+005  0.12081295270E+001  0.99878757718E+003  0.30000087969E+000
                    0.79290000000E-001  0.00000000000E+000 -0.28500000000E+002                   1  0.10166658665E+006  0.17757622623E+002  0.41942887900E+000  0.58057112100E+000  0.12535352189E-001  0.98746464781E+000  0.99998398410E+000  0.16015903894E-004  0.10189814728E+000  0.10885787765E+000 -0.79168351021E+004  0.12080823144E+001  0.99875834127E+003  0.30000107932E+000
                    0.79290000000E-001  0.00000000000E+000 -0.33500000000E+002                   1  0.14455947612E+006  0.17773408502E+002  0.87397359425E-001  0.91260264057E+000  0.88049170513E-002  0.99119508295E+000  0.99997708966E+000  0.22910338103E-004  0.00000000000E+000  0.63390521712E+000 -0.18081093430E+004  0.17215377637E+001  0.99877511985E+003  0.30012972162E+000
                    0.79290000000E-001  0.00000000000E+000 -0.38500000000E+002                   1  0.20722998844E+006  0.18228406145E+002  0.68302617507E-001  0.93169738249E+000  0.63110863527E-002  0.99368891365E+000  0.99996702533E+000  0.32974671680E-004  0.00000000000E+000  0.69328998626E+000 -0.15241357131E+004  0.24677274133E+001  0.99871998636E+003  0.30031789633E+000
                    0.79290000000E-001  0.00000000000E+000 -0.42250000000E+002                   1  0.64734604717E+006  0.17035539480E+002  0.12023043829E-001  0.98797695617E+000  0.18687525779E-002  0.99813124742E+000  0.99989625771E+000  0.10374228981E-003  0.00000000000E+000  0.91961216649E+000 -0.50404114168E+003  0.77611939942E+001  0.99913663891E+003  0.30164243240E+000
                    0.79290000000E-001  0.00000000000E+000 -0.44250000000E+002                   1  0.76546465566E+006  0.16898842173E+002  0.68644269976E-002  0.99313557300E+000  0.15664508898E-002  0.99843354911E+000  0.99987726955E+000  0.12273045086E-003  0.00000000000E+000  0.94862647668E+000 -0.35806752263E+003  0.91833528693E+001  0.99921448420E+003  0.30199884122E+000
                    0.79290000000E-001  0.00000000000E+000 -0.45500000000E+002                   1  0.81358056990E+006  0.16613758416E+002  0.49951261597E-002  0.99500487384E+000  0.14472421521E-002  0.99855275785E+000  0.99986953030E+000  0.13046969987E-003  0.00000000000E+000  0.96019880177E+000 -0.29528724717E+003  0.97709118802E+001  0.99928525664E+003  0.30214427082E+000
                    0.79290000000E-001  0.00000000000E+000 -0.46500000000E+002                   1  0.84398336295E+006  0.17018097121E+002  0.41046797036E-002  0.99589532030E+000  0.14313934142E-002  0.99856860659E+000  0.99986465156E+000  0.13534844121E-003  0.00000000000E+000  0.96601370894E+000 -0.26221848344E+003  0.10122015636E+002  0.99922984231E+003  0.30223606970E+000
                    0.79290000000E-001  0.00000000000E+000 -0.47500000000E+002                   1  0.86984486028E+006  0.17423210348E+002  0.35803907328E-002  0.99641960927E+000  0.14249217353E-002  0.99857507826E+000  0.99986050295E+000  0.13949705149E-003  0.00000000000E+000  0.96955508769E+000 -0.24143837026E+003  0.10417673206E+002  0.99917026465E+003  0.30231422452E+000
                    0.79290000000E-001  0.00000000000E+000 -0.48500000000E+002                   1  0.89356671073E+006  0.17829597311E+002  0.31867231269E-002  0.99681327687E+000  0.14231376709E-002  0.99857686233E+000  0.99985669846E+000  0.14330153644E-003  0.00000000000E+000  0.97228233086E+000 -0.22504468345E+003  0.10686843023E+002  0.99910754876E+003  0.30238594175E+000
                    0.79290000000E-001  0.00000000000E+000 -0.49500000000E+002                   1  0.91637043462E+006  0.18243432196E+002  0.28359120565E-002  0.99716408794E+000  0.14243375674E-002  0.99857566243E+000  0.99985304190E+000  0.14695809600E-003  0.00000000000E+000  0.97476947204E+000 -0.20975496551E+003  0.10943997914E+002  0.99904109749E+003  0.30245489078E+000
                    0.79290000000E-001  0.00000000000E+000 -0.50500000000E+002                   1  0.93830718463E+006  0.18650838807E+002  0.16890924905E-002  0.99831090751E+000  0.14270477029E-002  0.99857295230E+000  0.99984952476E+000  0.15047523856E-003  0.00000000000E+000  0.98339062752E+000 -0.15351398432E+003  0.11190319961E+002  0.99897352628E+003  0.30252124250E+000
                    0.79290000000E-001  0.00000000000E+000 -0.51500000000E+002                   1  0.95866763384E+006  0.15162742319E+002  0.00000000000E+000  0.10000000000E+001  0.00000000000E+000  0.00000000000E+000  0.99997462840E+000  0.25371600743E-004  0.00000000000E+000  0.10000000000E+001  0.00000000000E+000  0.11573615849E+002  0.99958513808E+003  0.30256792650E+000
                    0.79290000000E-001  0.00000000000E+000 -0.52500000000E+002                   1  0.97693726065E+006  0.15576552805E+002  0.00000000000E+000  0.10000000000E+001  0.00000000000E+000  0.00000000000E+000  0.99998541246E+000  0.14587536186E-004  0.00000000000E+000  0.10000000000E+001  0.00000000000E+000  0.11777212689E+002  0.99952961065E+003  0.30259334331E+000
                    0.79290000000E-001  0.00000000000E+000 -0.53500000000E+002                   1  0.99255809022E+006  0.15988672341E+002  0.00000000000E+000  0.10000000000E+001  0.00000000000E+000  0.00000000000E+000  0.99998900658E+000  0.10993417579E-004  0.00000000000E+000  0.10000000000E+001  0.00000000000E+000  0.11948384606E+002  0.99947104348E+003  0.30261088126E+000
                    0.79290000000E-001  0.00000000000E+000 -0.54500000000E+002                   1  0.10053196582E+007  0.16398060548E+002  0.00000000000E+000  0.10000000000E+001  0.00000000000E+000  0.00000000000E+000  0.99998983627E+000  0.10163732953E-004  0.00000000000E+000  0.10000000000E+001  0.00000000000E+000  0.12084785276E+002  0.99940956728E+003  0.30261974975E+000
                    0.79290000000E-001  0.00000000000E+000 -0.55500000000E+002                   1  0.10152730757E+007  0.16803474199E+002  0.00000000000E+000  0.10000000000E+001  0.00000000000E+000  0.00000000000E+000  0.99998997851E+000  0.10021485615E-004  0.00000000000E+000  0.10000000000E+001  0.00000000000E+000  0.12187232742E+002  0.99934548675E+003  0.30262025729E+000
                    0.79290000000E-001  0.00000000000E+000 -0.56500000000E+002                   1  0.10226947226E+007  0.17208506844E+002  0.00000000000E+000  0.10000000000E+001  0.00000000000E+000  0.00000000000E+000  0.99998999762E+000  0.10002382524E-004  0.00000000000E+000  0.10000000000E+001  0.00000000000E+000  0.12259035152E+002  0.99927837779E+003  0.30261299627E+000
                    0.79290000000E-001  0.00000000000E+000 -0.57750000000E+002                   1  0.10293367565E+007  0.19590910794E+002  0.00000000000E+000  0.10000000000E+001  0.00000000000E+000  0.00000000000E+000  0.99998999987E+000  0.10000129896E-004  0.00000000000E+000  0.10000000000E+001  0.00000000000E+000  0.12236877975E+002  0.99882881431E+003  0.30259616311E+000
                    0.79290000000E-001  0.00000000000E+000 -0.59750000000E+002                   1  0.10353749624E+007  0.21586411762E+002  0.00000000000E+000  0.10000000000E+001  0.00000000000E+000  0.00000000000E+000  0.99999000000E+000  0.10000002451E-004  0.00000000000E+000  0.10000000000E+001  0.00000000000E+000  0.12224057680E+002  0.99840455774E+003  0.30255506384E+000
                    0.79290000000E-001  0.00000000000E+000 -0.63500000000E+002                   1  0.10398486124E+007  0.22014767829E+002  0.00000000000E+000  0.10000000000E+001  0.00000000000E+000  0.00000000000E+000  0.99999000000E+000  0.99999997171E-005  0.00000000000E+000  0.10000000000E+001  0.00000000000E+000  0.12258804715E+002  0.99830943476E+003  0.30245753858E+000
                    0.79290000000E-001  0.00000000000E+000 -0.68500000000E+002                   1  0.10430922905E+007  0.22469206159E+002  0.00000000000E+000  0.10000000000E+001  0.00000000000E+000  0.00000000000E+000  0.99999000000E+000  0.99999997195E-005  0.00000000000E+000  0.10000000000E+001  0.00000000000E+000  0.12277848536E+002  0.99820576576E+003  0.30231930499E+000
                    0.79290000000E-001  0.00000000000E+000 -0.76000000000E+002                   1  0.10476239923E+007  0.23994577560E+002  0.00000000000E+000  0.10000000000E+001  0.00000000000E+000  0.00000000000E+000  0.99999000000E+000  0.99999997296E-005  0.00000000000E+000  0.10000000000E+001  0.00000000000E+000  0.12266782127E+002  0.99783958699E+003  0.30211091063E+000
                    0.79290000000E-001  0.00000000000E+000 -0.86000000000E+002                   1  0.10536695218E+007  0.24406720055E+002  0.00000000000E+000  0.10000000000E+001  0.00000000000E+000  0.00000000000E+000  0.99999000000E+000  0.99999997396E-005  0.00000000000E+000  0.10000000000E+001  0.00000000000E+000  0.12320228693E+002  0.99773882340E+003  0.30183336834E+000
                    0.79290000000E-001  0.00000000000E+000 -0.93500000000E+002                   1  0.10582269675E+007  0.23375345422E+002  0.00000000000E+000  0.10000000000E+001  0.00000000000E+000  0.00000000000E+000  0.99999000000E+000  0.99999997405E-005  0.00000000000E+000  0.10000000000E+001  0.00000000000E+000  0.12417425902E+002  0.99799665151E+003  0.30162544676E+000
                    0.79290000000E-001  0.00000000000E+000 -0.97500000000E+002                   1  0.10606580328E+007  0.21838444335E+002  0.00000000000E+000  0.10000000000E+001  0.00000000000E+000  0.00000000000E+000  0.99999000000E+000  0.99999997349E-005  0.00000000000E+000  0.10000000000E+001  0.00000000000E+000  0.12511963167E+002  0.99835904194E+003  0.30151450558E+000
                    0.79290000000E-001  0.00000000000E+000 -0.10000000000E+003                   1  0.10621792916E+007  0.19788936345E+002  0.00000000000E+000  0.10000000000E+001  0.00000000000E+000  0.00000000000E+000  0.99999000000E+000  0.99999997258E-005  0.00000000000E+000  0.10000000000E+001  0.00000000000E+000  0.12618977721E+002  0.99880326429E+003  0.30144531236E+000
                    0.79290000000E-001  0.00000000000E+000 -0.10200000000E+003                   1  0.10634149462E+007  0.17703381227E+002  0.00000000000E+000  0.10000000000E+001  0.00000000000E+000  0.00000000000E+000  0.99999000000E+000  0.99999997474E-005  0.00000000000E+000  0.10000000000E+001  0.00000000000E+000  0.12725531324E+002  0.99920826458E+003  0.30138995262E+000