        VARIABLES=                 X                 Y                 Z              HEAT      FLOW_WATER_G        FLOW_AIR_G      FLOW_WATER_L        FLOW_AIR_L     FDIFF_WATER_G       FDIFF_AIR_G     FDIFF_WATER_L       FDIFF_AIR_L
 ZONE T=" 0.9300000E+03 SEC"  I =     2419 
                    0.74998205398E-001  0.00000000000E+000 -0.25000000000E+000 -0.23968719965E-004 -0.22363706732E-011 -0.20997326322E-009 -0.36572105914E-012 -0.58602735032E-017  0.18533471975E-009 -0.18533471975E-009  0.20065051919E-022 -0.20065052131E-022
                    0.74998205398E-001  0.00000000000E+000 -0.75000000000E+000  0.24077023684E-002 -0.27997886765E-012 -0.26226630867E-010  0.37188102054E-011  0.59556875585E-016  0.10694616516E-009 -0.10694616516E-009  0.70214661084E-024 -0.70214657781E-024
                    0.37597140865E-001  0.00000000000E+000 -0.15000000000E+001  0.44277135148E+002  0.00000000000E+000  0.00000000000E+000  0.00000000000E+000  0.00000000000E+000  0.42630328806E-009 -0.42630328806E-009  0.95960642912E-020 -0.95960642912E-020
                    0.37597140865E-001  0.00000000000E+000 -0.27500000000E+001  0.52794183563E+002  0.00000000000E+000  0.00000000000E+000  0.00000000000E+000  0.00000000000E+000  0.34997221099E-009 -0.34997221099E-009  0.38150343386E-019 -0.38150343385E-019
                    0.37597140865E-001  0.00000000000E+000 -0.47500000000E+001  0.66953662001E+002  0.00000000000E+000  0.00000000000E+000  0.00000000000E+000  0.00000000000E+000  0.30216035133E-009 -0.30216035133E-009  0.82539502408E-019 -0.82539502414E-019
                    0.37597140865E-001  0.00000000000E+000 -0.85000000000E+001  0.96531217562E+002  0.00000000000E+000  0.00000000000E+000  0.00000000000E+000  0.00000000000E+000  0.29838148938E-009 -0.29838148938E-009  0.21442784452E-018 -0.21442784446E-018
                    0.37597140865E-001  0.00000000000E+000 -0.13500000000E+002  0.90132511986E+002  0.00000000000E+000  0.00000000000E+000  0.00000000000E+000  0.00000000000E+000  0.37498977355E-009 -0.37498977355E-009  0.14515381289E-017 -0.14515381287E-017
                    0.37597140865E-001  0.00000000000E+000 -0.18500000000E+002  0.64057672766E+002  0.00000000000E+000  0.00000000000E+000  0.00000000000E+000  0.00000000000E+000  0.35125472679E-009 -0.35125472679E-009  0.11885660550E-016 -0.11885660552E-016
                    0.37597140865E-001  0.00000000000E+000 -0.23500000000E+002  0.10891808891E+003  0.00000000000E+000  0.00000000000E+000  0.00000000000E+000  0.00000000000E+000  0.34570329340E-009 -0.34570329340E-009  0.27171154583E-016 -0.27171154577E-016
                    0.37597140865E-001  0.00000000000E+000 -0.28500000000E+002  0.13172788742E+003  0.00000000000E+000  0.00000000000E+000  0.00000000000E+000  0.00000000000E+000  0.27193005388E-009 -0.27193005388E-009  0.23799971792E-016 -0.23799971780E-016
                    0.37597140865E-001  0.00000000000E+000 -0.33500000000E+002  0.18858345096E+003  0.00000000000E+000  0.00000000000E+000  0.00000000000E+000  0.00000000000E+000 -0.00000000000E+000  0.00000000000E+000 -0.18120793888E-015  0.18120793887E-015
                    0.37597140865E-001  0.00000000000E+000 -0.38500000000E+002  0.15340428702E+003  0.00000000000E+000  0.00000000000E+000  0.00000000000E+000  0.00000000000E+000 -0.00000000000E+000  0.00000000000E+000 -0.73317651308E-015  0.73317651308E-015
                    0.37597140865E-001  0.00000000000E+000 -0.42250000000E+002  0.11259320008E+003  0.00000000000E+000  0.00000000000E+000  0.00000000000E+000  0.00000000000E+000 -0.00000000000E+000  0.00000000000E+000 -0.51695345577E-014  0.51695345577E-014
                    0.37597140865E-001  0.00000000000E+000 -0.44250000000E+002  0.13016417736E+003  0.00000000000E+000  0.00000000000E+000  0.00000000000E+000  0.00000000000E+000 -0.00000000000E+000  0.00000000000E+000 -0.38472909539E-014  0.38472909539E-014
                    0.37597140865E-001  0.00000000000E+000 -0.45500000000E+002  0.14071804979E+003  0.00000000000E+000  0.00000000000E+000  0.00000000000E+000  0.00000000000E+000 -0.00000000000E+000  0.00000000000E+000 -0.27549060528E-014  0.27549060528E-014
                    0.37597140865E-001  0.00000000000E+000 -0.46500000000E+002  0.13282011988E+003  0.00000000000E+000  0.00000000000E+000  0.00000000000E+000  0.00000000000E+000 -0.00000000000E+000  0.00000000000E+000 -0.28662149665E-014  0.28662149665E-014
                    0.37597140865E-001  0.00000000000E+000 -0.47500000000E+002  0.12485638889E+003  0.00000000000E+000  0.00000000000E+000  0.00000000000E+000  0.00000000000E+000 -0.00000000000E+000  0.00000000000E+000 -0.29549954677E-014  0.29549954677E-014
                    0.37597140865E-001  0.00000000000E+000 -0.48500000000E+002  0.11693491369E+003  0.00000000000E+000  0.00000000000E+000  0.00000000000E+000  0.00000000000E+000 -0.00000000000E+000  0.00000000000E+000 -0.30332460025E-014  0.30332460025E-014
                    0.37597140865E-001  0.00000000000E+000 -0.49500000000E+002  0.10890745985E+003  0.00000000000E+000  0.00000000000E+000  0.00000000000E+000  0.00000000000E+000 -0.00000000000E+000  0.00000000000E+000 -0.31078637092E-014  0.31078637092E-014
                    0.37597140865E-001  0.00000000000E+000 -0.50500000000E+002  0.10106569706E+003  0.00000000000E+000  0.00000000000E+000  0.00000000000E+000  0.00000000000E+000 -0.00000000000E+000  0.00000000000E+000 -0.31826854547E-014  0.31826854547E-014
                    0.37597140865E-001  0.00000000000E+000 -0.51500000000E+002  0.20816813376E+003  0.00000000000E+000  0.00000000000E+000  0.00000000000E+000  0.00000000000E+000 -0.00000000000E+000 -0.00000000000E+000 -0.18904674443E-014  0.18904674443E-014
                    0.37597140865E-001  0.00000000000E+000 -0.52500000000E+002  0.20016734395E+003  0.00000000000E+000  0.00000000000E+000  0.00000000000E+000  0.00000000000E+000 -0.00000000000E+000 -0.00000000000E+000 -0.10814006067E-014  0.10814006068E-014
                    0.37597140865E-001  0.00000000000E+000 -0.53500000000E+002  0.19216566669E+003  0.00000000000E+000  0.00000000000E+000  0.00000000000E+000  0.00000000000E+000 -0.00000000000E+000 -0.00000000000E+000 -0.78633324278E-015  0.78633324280E-015
                    0.37597140865E-001  0.00000000000E+000 -0.54500000000E+002  0.18403193736E+003  0.00000000000E+000  0.00000000000E+000  0.00000000000E+000  0.00000000000E+000 -0.00000000000E+000 -0.00000000000E+000 -0.75169340290E-015  0.75169340289E-015
                    0.37597140865E-001  0.00000000000E+000 -0.55500000000E+002  0.17609044551E+003  0.00000000000E+000  0.00000000000E+000  0.00000000000E+000  0.00000000000E+000 -0.00000000000E+000 -0.00000000000E+000 -0.76801052030E-015  0.76801052030E-015
                    0.37597140865E-001  0.00000000000E+000 -0.56500000000E+002  0.16805876748E+003  0.00000000000E+000  0.00000000000E+000  0.00000000000E+000  0.00000000000E+000 -0.00000000000E+000 -0.00000000000E+000 -0.79322059108E-015  0.79322059104E-015
                    0.37597140865E-001  0.00000000000E+000 -0.57750000000E+002  0.89685230724E+002  0.00000000000E+000  0.00000000000E+000  0.00000000000E+000  0.00000000000E+000 -0.00000000000E+000 -0.00000000000E+000 -0.11393572996E-014  0.11393572997E-014
                    0.37597140865E-001  0.00000000000E+000 -0.59750000000E+002 -0.70667728429E+002  0.00000000000E+000  0.00000000000E+000  0.00000000000E+000  0.00000000000E+000 -0.00000000000E+000 -0.00000000000E+000 -0.17045580894E-014  0.17045580893E-014
                    0.37597140865E-001  0.00000000000E+000 -0.63500000000E+002  0.17292486692E+003  0.00000000000E+000  0.00000000000E+000  0.00000000000E+000  0.00000000000E+000 -0.00000000000E+000 -0.00000000000E+000 -0.33272841005E-014  0.33272841005E-014
                    0.37597140865E-001  0.00000000000E+000 -0.68500000000E+002  0.13626391081E+003  0.00000000000E+000  0.00000000000E+000  0.00000000000E+000  0.00000000000E+000 -0.00000000000E+000 -0.00000000000E+000 -0.30187110539E-014  0.30187110538E-014
                    0.37597140865E-001  0.00000000000E+000 -0.76000000000E+002 -0.52925351090E+003  0.00000000000E+000  0.00000000000E+000  0.00000000000E+000  0.00000000000E+000 -0.00000000000E+000 -0.00000000000E+000 -0.38981450346E-014  0.38981450345E-014
                    0.37597140865E-001  0.00000000000E+000 -0.86000000000E+002 -0.53969391482E+003  0.00000000000E+000  0.00000000000E+000  0.00000000000E+000  0.00000000000E+000 -0.00000000000E+000 -0.00000000000E+000 -0.17791225474E-014  0.17791225474E-014
                    0.37597140865E-001  0.00000000000E+000 -0.93500000000E+002  0.31544988084E+002  0.00000000000E+000  0.00000000000E+000  0.00000000000E+000  0.00000000000E+000 -0.00000000000E+000 -0.00000000000E+000 -0.78698946540E-015  0.78698946548E-015
                    0.37597140865E-001  0.00000000000E+000 -0.97500000000E+002  0.37716940252E+003  0.00000000000E+000  0.00000000000E+000  0.00000000000E+000  0.00000000000E+000 -0.00000000000E+000 -0.00000000000E+000 -0.84597477571E-015  0.84597477579E-015
                    0.37597140865E-001  0.00000000000E+000 -0.10000000000E+003  0.55302645727E+003  0.00000000000E+000  0.00000000000E+000  0.00000000000E+000  0.00000000000E+000 -0.00000000000E+000 -0.00000000000E+000 -0.94430555801E-015  0.94430555804E-015
                    0.74998205398E-001  0.00000000000E+000 -0.10200000000E+003  0.12121385983E+001  0.00000000000E+000  0.00000000000E+000  0.15340906795E-004  0.15341059818E-009  0.00000000000E+000  0.00000000000E+000  0.00000000000E+000 -0.80281183354E-025
                    0.74998205398E-001  0.00000000000E+000 -0.10500000000E+003  0.16586446677E-001  0.00000000000E+000  0.00000000000E+000  0.22060739972E-006  0.22060960024E-011  0.00000000000E+000  0.00000000000E+000  0.00000000000E+000  0.00000000000E+000
                    0.74998205398E-001  0.00000000000E+000 -0.11100000000E+003  0.30352474011E-001  0.00000000000E+000  0.00000000000E+000  0.40424476406E-006  0.40424879634E-011  0.00000000000E+000  0.00000000000E+000  0.00000000000E+000  0.46143296539E-025
                    0.74998205398E-001  0.00000000000E+000 -0.12300000000E+003  0.61970048092E-001  0.00000000000E+000  0.00000000000E+000  0.80409156609E-006  0.80409958678E-011  0.00000000000E+000  0.00000000000E+000  0.00000000000E+000 -0.12290828409E-026
                    0.74998205398E-001  0.00000000000E+000 -0.14700000000E+003 -0.14447384212E+001  0.00000000000E+000  0.00000000000E+000 -0.18232709208E-004 -0.18232891076E-009  0.00000000000E+000  0.00000000000E+000  0.00000000000E+000 -0.96999493633E-024
                    0.74998205398E-001  0.00000000000E+000 -0.19500000000E+003  0.49167767708E+000  0.00000000000E+000  0.00000000000E+000  0.58592232025E-005  0.58592816473E-010  0.00000000000E+000  0.00000000000E+000  0.00000000000E+000  0.00000000000E+000
                    0.83584331342E-001  0.00000000000E+000 -0.25000000000E+000 -0.57364618233E-004 -0.40849219727E-011 -0.38331625109E-009 -0.30807149022E-012 -0.49337000608E-017 -0.33413130782E-014  0.33413130782E-014  0.60645366563E-027 -0.60645011245E-027
                    0.83584331342E-001  0.00000000000E+000 -0.75000000000E+000 -0.21228266757E-001 -0.13320331723E-011 -0.12473591193E-009  0.29804498159E-011  0.47732042019E-016 -0.71036572508E-010  0.71036572508E-010 -0.34838215448E-025  0.34838337928E-025
                    0.83584331342E-001  0.00000000000E+000 -0.15000000000E+001  0.12021230115E+002  0.12387582930E-008  0.80738197778E-007  0.92686070376E-008  0.14736628752E-012  0.55467590334E-007 -0.55467590334E-007  0.23479428942E-022 -0.23479429166E-022
                    0.83584331342E-001  0.00000000000E+000 -0.27500000000E+001  0.21564101603E+002  0.14925783254E-008  0.11135264674E-006  0.74138653736E-008  0.11825110424E-012  0.87351008715E-007 -0.87351008715E-007  0.12770911529E-021 -0.12770911708E-021
                    0.83584331342E-001  0.00000000000E+000 -0.47500000000E+001  0.37473945216E+002  0.19276993815E-008  0.15935537253E-006  0.77401852705E-008  0.12373771503E-012  0.13710875018E-006 -0.13710875018E-006  0.44193545380E-021 -0.44193545362E-021
                    0.83584331342E-001  0.00000000000E+000 -0.85000000000E+001  0.70723302925E+002  0.29260462243E-008  0.25873834499E-006  0.10881096440E-007  0.17424106613E-012  0.23966901939E-006 -0.23966901939E-006  0.22169247161E-020 -0.22169247546E-020
                    0.83584331342E-001  0.00000000000E+000 -0.13500000000E+002  0.20839388228E+002  0.15020619872E-008  0.12423308217E-006  0.77583982877E-007  0.12415804375E-011  0.72507176327E-007 -0.72507176327E-007  0.34685986017E-020 -0.34685987431E-020
                    0.83584331342E-001  0.00000000000E+000 -0.18500000000E+002 -0.92626759123E+001  0.28455581243E-009  0.22791521430E-007  0.37815853428E-006  0.60515295813E-011 -0.29998758594E-007  0.29998758594E-007 -0.16683880199E-019  0.16683880575E-019
                    0.83584331342E-001  0.00000000000E+000 -0.23500000000E+002  0.21772617194E+002  0.14002497072E-008  0.11100050568E-006  0.49522187945E-006  0.79278614694E-011  0.54167399810E-007 -0.54167399810E-007  0.47979208811E-018 -0.47979209713E-018
                    0.83584331342E-001  0.00000000000E+000 -0.28500000000E+002  0.30334904453E+002  0.44561026012E-009  0.34984636155E-007  0.11506892592E-005  0.18428415475E-010  0.69074334468E-008 -0.69074334468E-008  0.65364914306E-016 -0.65364916050E-016
                    0.83584331342E-001  0.00000000000E+000 -0.33500000000E+002  0.66040725493E+002  0.00000000000E+000  0.00000000000E+000  0.72822385468E-005  0.16683233923E-009  0.00000000000E+000 -0.00000000000E+000  0.49921699665E-015 -0.49921697799E-015
                    0.83584331342E-001  0.00000000000E+000 -0.38500000000E+002  0.30180919355E+002  0.00000000000E+000  0.00000000000E+000  0.11307727570E-003  0.37289425052E-008  0.00000000000E+000 -0.00000000000E+000 -0.46810589741E-015  0.46810588276E-015
                    0.83584331342E-001  0.00000000000E+000 -0.42250000000E+002  0.99487575689E+002  0.00000000000E+000  0.00000000000E+000  0.43378990314E-004  0.45005343538E-008  0.00000000000E+000 -0.00000000000E+000  0.10253814127E-014 -0.10253814282E-014
                    0.83584331342E-001  0.00000000000E+000 -0.44250000000E+002  0.11896204883E+003  0.00000000000E+000  0.00000000000E+000  0.13393584255E-004  0.16438761320E-008  0.00000000000E+000 -0.00000000000E+000  0.15433803450E-014 -0.15433803473E-014
                    0.83584331342E-001  0.00000000000E+000 -0.45500000000E+002  0.13141307573E+003  0.00000000000E+000  0.00000000000E+000  0.55810097334E-005  0.72815575212E-009  0.00000000000E+000 -0.00000000000E+000  0.18202773437E-014 -0.18202773511E-014
                    0.83584331342E-001  0.00000000000E+000 -0.46500000000E+002  0.12153196470E+003  0.00000000000E+000  0.00000000000E+000  0.38677377417E-005  0.52350367400E-009  0.00000000000E+000 -0.00000000000E+000  0.17096720284E-014 -0.17096720371E-014
                    0.83584331342E-001  0.00000000000E+000 -0.47500000000E+002  0.11164923159E+003  0.00000000000E+000  0.00000000000E+000  0.26729586357E-005  0.37288395497E-009  0.00000000000E+000 -0.00000000000E+000  0.15833682763E-014 -0.15833682780E-014
                    0.83584331342E-001  0.00000000000E+000 -0.48500000000E+002  0.10180320923E+003  0.00000000000E+000  0.00000000000E+000  0.18796929992E-005  0.26937713514E-009  0.00000000000E+000 -0.00000000000E+000  0.14511852833E-014 -0.14511852772E-014
                    0.83584331342E-001  0.00000000000E+000 -0.49500000000E+002  0.91898806854E+002  0.00000000000E+000  0.00000000000E+000  0.14119951509E-005  0.20751810512E-009  0.00000000000E+000 -0.00000000000E+000  0.13127702278E-014 -0.13127702324E-014
                    0.83584331342E-001  0.00000000000E+000 -0.50500000000E+002  0.82323509236E+002  0.00000000000E+000  0.00000000000E+000  0.16508688852E-005  0.24843576942E-009  0.00000000000E+000 -0.00000000000E+000  0.11323026558E-014 -0.11323026516E-014
                    0.83584331342E-001  0.00000000000E+000 -0.51500000000E+002  0.19989798544E+003  0.00000000000E+000  0.00000000000E+000  0.89332491789E-006  0.22696492719E-010  0.00000000000E+000  0.00000000000E+000 -0.39840363275E-014  0.39840363348E-014
                    0.83584331342E-001  0.00000000000E+000 -0.52500000000E+002  0.19006537182E+003  0.00000000000E+000  0.00000000000E+000  0.98652654993E-006  0.14395472045E-010  0.00000000000E+000  0.00000000000E+000 -0.49966134950E-015  0.49966134168E-015
                    0.83584331342E-001  0.00000000000E+000 -0.53500000000E+002  0.18015932893E+003  0.00000000000E+000  0.00000000000E+000  0.10636962821E-005  0.11694094018E-010  0.00000000000E+000  0.00000000000E+000 -0.33430163304E-016  0.33430165564E-016
                    0.83584331342E-001  0.00000000000E+000 -0.54500000000E+002  0.17018771967E+003  0.00000000000E+000  0.00000000000E+000  0.10833330830E-005  0.11010825999E-010  0.00000000000E+000  0.00000000000E+000 -0.63207992107E-018  0.63207843413E-018
                    0.83584331342E-001  0.00000000000E+000 -0.55500000000E+002  0.16035556065E+003  0.00000000000E+000  0.00000000000E+000  0.10375842735E-005  0.10398238227E-010  0.00000000000E+000  0.00000000000E+000  0.20580279573E-018 -0.20579533604E-018
                    0.83584331342E-001  0.00000000000E+000 -0.56500000000E+002  0.15046464301E+003  0.00000000000E+000  0.00000000000E+000  0.96015919329E-006  0.96039739107E-011  0.00000000000E+000  0.00000000000E+000  0.20283775825E-018 -0.20283162757E-018
                    0.83584331342E-001  0.00000000000E+000 -0.57750000000E+002  0.53900384787E+002  0.00000000000E+000  0.00000000000E+000  0.15802470604E-005  0.15802833963E-010  0.00000000000E+000  0.00000000000E+000 -0.66473408615E-020  0.66467463505E-020
                    0.83584331342E-001  0.00000000000E+000 -0.59750000000E+002 -0.14367097842E+003  0.00000000000E+000  0.00000000000E+000  0.24012064245E-005  0.24012310330E-010  0.00000000000E+000  0.00000000000E+000 -0.91212494781E-020  0.91167747441E-020
                    0.83584331342E-001  0.00000000000E+000 -0.63500000000E+002 -0.14957985202E+003  0.00000000000E+000  0.00000000000E+000  0.75467501610E-005  0.75468254386E-010  0.00000000000E+000  0.00000000000E+000 -0.17402712119E-019  0.17430401948E-019
                    0.83584331342E-001  0.00000000000E+000 -0.68500000000E+002 -0.19474367446E+003  0.00000000000E+000  0.00000000000E+000  0.77236063703E-005  0.77236834121E-010  0.00000000000E+000  0.00000000000E+000 -0.16114191088E-019  0.16105729589E-019
                    0.83584331342E-001  0.00000000000E+000 -0.76000000000E+002 -0.11428546792E+004  0.00000000000E+000  0.00000000000E+000  0.15292458032E-004  0.15292610572E-009  0.00000000000E+000  0.00000000000E+000 -0.20442311522E-019  0.20392848028E-019
                    0.83584331342E-001  0.00000000000E+000 -0.86000000000E+002 -0.11748544331E+004  0.00000000000E+000  0.00000000000E+000  0.15966754094E-004  0.15966913359E-009  0.00000000000E+000  0.00000000000E+000 -0.89344348883E-020  0.89514701278E-020
                    0.83584331342E-001  0.00000000000E+000 -0.93500000000E+002 -0.27083025709E+003  0.00000000000E+000  0.00000000000E+000  0.71773405846E-005  0.71774121774E-010  0.00000000000E+000  0.00000000000E+000 -0.39547337692E-020  0.39813077124E-020
                    0.83584331342E-001  0.00000000000E+000 -0.97500000000E+002  0.15483842243E+003  0.00000000000E+000  0.00000000000E+000  0.48544820377E-005  0.48545304603E-010  0.00000000000E+000  0.00000000000E+000 -0.43253669202E-020  0.43047638661E-020
                    0.83584331342E-001  0.00000000000E+000 -0.10000000000E+003  0.37129726055E+003  0.00000000000E+000  0.00000000000E+000  0.34986942133E-005  0.34987291124E-010  0.00000000000E+000  0.00000000000E+000 -0.50755043037E-020  0.50702519827E-020
                    0.83584331342E-001  0.00000000000E+000 -0.10200000000E+003  0.11432358298E+001  0.00000000000E+000  0.00000000000E+000  0.15163812748E-004  0.15163964004E-009  0.00000000000E+000  0.00000000000E+000  0.00000000000E+000  0.40489276060E-024
                    0.83584331342E-001  0.00000000000E+000 -0.10500000000E+003  0.20143240766E-001  0.00000000000E+000  0.00000000000E+000  0.27295412442E-006  0.27295684709E-011  0.00000000000E+000  0.00000000000E+000  0.00000000000E+000  0.21027300399E-024
                    0.83584331342E-001  0.00000000000E+000 -0.11100000000E+003  0.38024568745E-001  0.00000000000E+000  0.00000000000E+000  0.50206973708E-006  0.50207474514E-011  0.00000000000E+000  0.00000000000E+000  0.00000000000E+000  0.15563169680E-026
                    0.83584331342E-001  0.00000000000E+000 -0.12300000000E+003  0.76971035045E-001  0.00000000000E+000  0.00000000000E+000  0.99873709962E-006  0.99874706186E-011  0.00000000000E+000  0.00000000000E+000  0.00000000000E+000  0.31156684650E-023
                    0.83584331342E-001  0.00000000000E+000 -0.14700000000E+003 -0.17930807510E+001  0.00000000000E+000  0.00000000000E+000 -0.22645840210E-004 -0.22646066099E-009  0.00000000000E+000  0.00000000000E+000  0.00000000000E+000  0.15081169567E-023
                    0.83584331342E-001  0.00000000000E+000 -0.19500000000E+003  0.61068780887E+000  0.00000000000E+000  0.00000000000E+000  0.72774428167E-005  0.72775154080E-010  0.00000000000E+000  0.00000000000E+000  0.00000000000E+000 -0.12429848057E-025
                    0.93414398785E-001  0.00000000000E+000 -0.25000000000E+000 -0.97375716265E-004 -0.39306670313E-011 -0.36884145250E-009 -0.30600580582E-012 -0.49006184624E-017 -0.14463753214E-012  0.14463753214E-012  0.53968288426E-027 -0.53964681800E-027
                    0.93414398785E-001  0.00000000000E+000 -0.75000000000E+000 -0.50062342073E-001 -0.13484895371E-011 -0.12628231231E-009  0.34062527437E-011  0.54551389792E-016 -0.16759000210E-009  0.16759000210E-009 -0.83015160750E-025  0.83014894941E-025
                    0.93414398785E-001  0.00000000000E+000 -0.15000000000E+001 -0.40399320126E+002 -0.17790931005E-008 -0.11595544621E-006 -0.17728699498E-008 -0.28187759141E-013 -0.18326274585E-006  0.18326274585E-006 -0.22835214275E-021  0.22835214289E-021
                    0.93414398785E-001  0.00000000000E+000 -0.27500000000E+001 -0.30819998068E+002 -0.79134491444E-009 -0.59037672736E-007 -0.11009177234E-008 -0.17559630491E-013 -0.12425974655E-006  0.12425974655E-006 -0.23989284849E-021  0.23989285097E-021
                    0.93414398785E-001  0.00000000000E+000 -0.47500000000E+001 -0.14854733479E+002  0.98831241477E-010  0.82189376029E-008 -0.74292203753E-009 -0.11876650514E-013 -0.54553911755E-007  0.54553911755E-007 -0.19175688607E-021  0.19175689554E-021
                    0.93414398785E-001  0.00000000000E+000 -0.85000000000E+001  0.18631401760E+002  0.13906574274E-008  0.12251167181E-006 -0.32813001358E-009 -0.52544082953E-014  0.63598890768E-007 -0.63598890768E-007  0.59588266108E-021 -0.59588264521E-021
                    0.93414398785E-001  0.00000000000E+000 -0.13500000000E+002 -0.58803529752E+002 -0.11095551748E-008 -0.91769487801E-007 -0.29749331179E-008 -0.47608006513E-013 -0.20398215658E-006  0.20398215658E-006 -0.99983709122E-020  0.99983709742E-020
                    0.93414398785E-001  0.00000000000E+000 -0.18500000000E+002 -0.90741406182E+002 -0.22134316580E-008 -0.17728499247E-006  0.40133945777E-007  0.64245860882E-012 -0.29021239238E-006  0.29021239238E-006 -0.16151068040E-018  0.16151068169E-018
                    0.93414398785E-001  0.00000000000E+000 -0.23500000000E+002 -0.76486612523E+002 -0.85390263386E-009 -0.67690515253E-007  0.49919085528E-006  0.79934133523E-011 -0.18999110121E-006  0.18999110121E-006 -0.17012796114E-017  0.17012796311E-017
                    0.93414398785E-001  0.00000000000E+000 -0.28500000000E+002 -0.89341823832E+002  0.52121241157E-009  0.41340574101E-007  0.23733818824E-005  0.38017799922E-010 -0.20394717920E-007  0.20394717920E-007 -0.20046528191E-015  0.20046527942E-015
                    0.93414398785E-001  0.00000000000E+000 -0.33500000000E+002 -0.79993536829E+002  0.00000000000E+000  0.00000000000E+000  0.16030156464E-004  0.36728744738E-009 -0.00000000000E+000  0.00000000000E+000 -0.98855770244E-015  0.98855767833E-015
                    0.93414398785E-001  0.00000000000E+000 -0.38500000000E+002 -0.11134178745E+003  0.00000000000E+000  0.00000000000E+000  0.25734657652E-003  0.84882137348E-008 -0.00000000000E+000  0.00000000000E+000 -0.25711902177E-014  0.25711902369E-014
                    0.93414398785E-001  0.00000000000E+000 -0.42250000000E+002  0.57676118794E+002  0.00000000000E+000  0.00000000000E+000  0.99556951166E-004  0.10328842227E-007  0.00000000000E+000 -0.00000000000E+000  0.28228104490E-015 -0.28228103993E-015
                    0.93414398785E-001  0.00000000000E+000 -0.44250000000E+002  0.76832839614E+002  0.00000000000E+000  0.00000000000E+000  0.31140455137E-004  0.38218723780E-008  0.00000000000E+000 -0.00000000000E+000  0.94954971697E-015 -0.94954970575E-015
                    0.93414398785E-001  0.00000000000E+000 -0.45500000000E+002  0.90092694450E+002  0.00000000000E+000  0.00000000000E+000  0.13442555866E-004  0.17536921253E-008  0.00000000000E+000 -0.00000000000E+000  0.12944732134E-014 -0.12944732087E-014
                    0.93414398785E-001  0.00000000000E+000 -0.46500000000E+002  0.78924211973E+002  0.00000000000E+000  0.00000000000E+000  0.94700219710E-005  0.12816798999E-008  0.00000000000E+000 -0.00000000000E+000  0.11528220322E-014 -0.11528220252E-014
                    0.93414398785E-001  0.00000000000E+000 -0.47500000000E+002  0.67817869648E+002  0.00000000000E+000  0.00000000000E+000  0.67002322908E-005  0.93463643366E-009  0.00000000000E+000 -0.00000000000E+000  0.99981703207E-015 -0.99981702999E-015
                    0.93414398785E-001  0.00000000000E+000 -0.48500000000E+002  0.56775566032E+002  0.00000000000E+000  0.00000000000E+000  0.48577539304E-005  0.69612312808E-009  0.00000000000E+000 -0.00000000000E+000  0.83723178491E-015 -0.83723178931E-015
                    0.93414398785E-001  0.00000000000E+000 -0.49500000000E+002  0.45686194513E+002  0.00000000000E+000  0.00000000000E+000  0.37659512541E-005  0.55345141915E-009  0.00000000000E+000 -0.00000000000E+000  0.66551428338E-015 -0.66551428300E-015
                    0.93414398785E-001  0.00000000000E+000 -0.50500000000E+002  0.35020001037E+002  0.00000000000E+000  0.00000000000E+000  0.41489705099E-005  0.62435271850E-009  0.00000000000E+000 -0.00000000000E+000  0.45438048334E-015 -0.45438049060E-015
                    0.93414398785E-001  0.00000000000E+000 -0.51500000000E+002  0.15191711598E+003  0.00000000000E+000  0.00000000000E+000  0.27199981539E-005  0.69161161803E-010  0.00000000000E+000  0.00000000000E+000 -0.22704508833E-014  0.22704508798E-014
                    0.93414398785E-001  0.00000000000E+000 -0.52500000000E+002  0.14093663015E+003  0.00000000000E+000  0.00000000000E+000  0.29330171735E-005  0.42807044233E-010  0.00000000000E+000  0.00000000000E+000 -0.31612191940E-015  0.31612191998E-015
                    0.93414398785E-001  0.00000000000E+000 -0.53500000000E+002  0.12986395573E+003  0.00000000000E+000  0.00000000000E+000  0.31024643006E-005  0.34108652725E-010  0.00000000000E+000  0.00000000000E+000 -0.25190875695E-016  0.25190879993E-016
                    0.93414398785E-001  0.00000000000E+000 -0.54500000000E+002  0.11879482732E+003  0.00000000000E+000  0.00000000000E+000  0.31348935366E-005  0.31862578822E-010  0.00000000000E+000  0.00000000000E+000 -0.61350785079E-018  0.61350978938E-018
                    0.93414398785E-001  0.00000000000E+000 -0.55500000000E+002  0.10781280133E+003  0.00000000000E+000  0.00000000000E+000  0.30156391486E-005  0.30221484575E-010  0.00000000000E+000  0.00000000000E+000 -0.10243807236E-018  0.10243181699E-018
                    0.93414398785E-001  0.00000000000E+000 -0.56500000000E+002  0.96797098654E+002  0.00000000000E+000  0.00000000000E+000  0.28199234208E-005  0.28206232529E-010  0.00000000000E+000  0.00000000000E+000 -0.10430622538E-018  0.10429976418E-018
                    0.93414398785E-001  0.00000000000E+000 -0.57750000000E+002 -0.10682205301E+002  0.00000000000E+000  0.00000000000E+000  0.39565930533E-005  0.39566840314E-010  0.00000000000E+000  0.00000000000E+000 -0.41262677730E-021  0.40492110549E-021
                    0.93414398785E-001  0.00000000000E+000 -0.59750000000E+002 -0.23066373959E+003  0.00000000000E+000  0.00000000000E+000  0.52248114306E-005  0.52248649765E-010  0.00000000000E+000  0.00000000000E+000 -0.31241603689E-022  0.29342394871E-022
                    0.93414398785E-001  0.00000000000E+000 -0.63500000000E+002 -0.48436130615E+003  0.00000000000E+000  0.00000000000E+000  0.15390275661E-004  0.15390429176E-009  0.00000000000E+000  0.00000000000E+000  0.00000000000E+000 -0.68066338909E-023
                    0.93414398785E-001  0.00000000000E+000 -0.68500000000E+002 -0.53457603606E+003  0.00000000000E+000  0.00000000000E+000  0.15573212331E-004  0.15573367671E-009  0.00000000000E+000  0.00000000000E+000  0.62442692842E-022 -0.77338766143E-022
                    0.93414398785E-001  0.00000000000E+000 -0.76000000000E+002 -0.16767503285E+004  0.00000000000E+000  0.00000000000E+000  0.28198175457E-004  0.28198456729E-009  0.00000000000E+000  0.00000000000E+000  0.00000000000E+000  0.11180004867E-022
                    0.93414398785E-001  0.00000000000E+000 -0.86000000000E+002 -0.17264796221E+004  0.00000000000E+000  0.00000000000E+000  0.29431583177E-004  0.29431876752E-009  0.00000000000E+000  0.00000000000E+000  0.00000000000E+000 -0.22381304791E-022