 VARIABLES       =                 X                 Y                 Z              ROCK              PRES              TEMP             SAT_G             SAT_L         X_WATER_G           X_AIR_G         X_WATER_L           X_AIR_L             REL_G             REL_L           PCAP_GL             DEN_G             DEN_L               POR
 ZONE T=" 0.3153570E+08 SEC"  I =        9 J =        0 K =       30
                    0.37500000000E-001  0.00000000000E+000 -0.15000000000E+001                   2  0.10091934966E+006  0.60167818183E+001  0.50042048330E+000  0.49957951670E+000  0.57909029045E-002  0.99420909710E+000  0.99998392811E+000  0.16071887661E-004  0.18802601851E+000  0.60914699167E-001  0.00000000000E+000  0.12547209649E+001  0.10000044294E+004  0.99992802885E-003
                    0.37500000000E-001  0.00000000000E+000 -0.27500000000E+001                   2  0.10095080320E+006  0.79865799184E+001  0.50038077017E+000  0.49961922983E+000  0.66306010842E-002  0.99336939892E+000  0.99998394482E+000  0.16055179821E-004  0.18797630252E+000  0.60933608457E-001  0.00000000000E+000  0.12456865524E+001  0.99993029699E+003  0.99992464899E-003
                    0.37500000000E-001  0.00000000000E+000 -0.47500000000E+001                   2  0.10098906887E+006  0.10053653914E+002  0.50029935272E+000  0.49970064728E+000  0.76257867992E-002  0.99237421320E+000  0.99998396445E+000  0.16035548836E-004  0.18787440093E+000  0.60972388006E-001  0.00000000000E+000  0.12363209798E+001  0.99978953978E+003  0.99993326908E-003
                    0.37500000000E-001  0.00000000000E+000 -0.85000000000E+001                   2  0.10104102610E+006  0.11354314860E+002  0.50023994317E+000  0.49976005683E+000  0.83154953844E-002  0.99168450462E+000  0.99998397401E+000  0.16025986686E-004  0.18780006389E+000  0.61000696007E-001  0.00000000000E+000  0.12307904694E+001  0.99966968363E+003  0.99993338590E-003
                    0.37500000000E-001  0.00000000000E+000 -0.13500000000E+002                   2  0.10093832332E+006  0.10250776478E+002  0.50029195154E+000  0.49970804846E+000  0.77314526970E-002  0.99226854730E+000  0.99998397524E+000  0.16024764032E-004  0.18786513919E+000  0.60975914087E-001  0.00000000000E+000  0.12347615961E+001  0.99977286679E+003  0.99995813978E-003
                    0.37500000000E-001  0.00000000000E+000 -0.18500000000E+002                   2  0.10103694206E+006  0.10827948817E+002  0.50027161597E+000  0.49972838403E+000  0.80286436709E-002  0.99197135633E+000  0.99998396726E+000  0.16032744790E-004  0.18783969288E+000  0.60985603116E-001  0.00000000000E+000  0.12332350589E+001  0.99972102735E+003  0.99995206498E-003
                    0.37500000000E-001  0.00000000000E+000 -0.23500000000E+002                   2  0.10106808544E+006  0.10716443778E+002  0.50029481281E+000  0.49970518719E+000  0.79664792430E-002  0.99203352076E+000  0.99998396071E+000  0.16039292497E-004  0.18786871971E+000  0.60974550901E-001  0.00000000000E+000  0.12341459917E+001  0.99973142820E+003  0.99996281296E-003
                    0.37500000000E-001  0.00000000000E+000 -0.28500000000E+002                   2  0.10116726039E+006  0.11322219692E+002  0.50025869050E+000  0.49974130950E+000  0.82873218337E-002  0.99171267817E+000  0.99998395326E+000  0.16046736759E-004  0.18782351997E+000  0.60991762115E-001  0.00000000000E+000  0.12324881051E+001  0.99967298260E+003  0.99975359158E-003
                    0.37500000000E-001  0.00000000000E+000 -0.33500000000E+002                   2  0.11023530789E+006  0.11473230027E+002  0.50037500104E+000  0.49962499896E+000  0.76792888904E-002  0.99232071111E+000  0.99998249779E+000  0.17502205131E-004  0.18796908089E+000  0.60936355752E-001  0.00000000000E+000  0.13427412932E+001  0.99966187675E+003  0.10002331497E-002
                    0.37500000000E-001  0.00000000000E+000 -0.38500000000E+002                   2  0.17263945900E+006  0.11579137679E+002  0.50108977689E+000  0.49891022311E+000  0.49297617621E-002  0.99507023824E+000  0.99997246828E+000  0.27531722154E-004  0.18886500458E+000  0.60596635882E-001  0.00000000000E+000  0.21055780680E+001  0.99968020934E+003  0.10006632016E-002
                    0.37500000000E-001  0.00000000000E+000 -0.42250000000E+002                   2  0.19475634633E+006  0.11652523174E+002  0.50134534905E+000  0.49865465095E+000  0.43897661104E-002  0.99561023389E+000  0.99996891422E+000  0.31085778831E-004  0.18918592841E+000  0.60475490210E-001  0.00000000000E+000  0.23754876204E+001  0.99968289216E+003  0.10008245387E-002
                    0.37500000000E-001  0.00000000000E+000 -0.44250000000E+002                   2  0.20451616116E+006  0.11693716990E+002  0.50145919052E+000  0.49854080948E+000  0.41911809696E-002  0.99580881903E+000  0.99996734601E+000  0.32653991993E-004  0.18932897853E+000  0.60421582086E-001  0.00000000000E+000  0.24944691095E+001  0.99968311729E+003  0.10009558554E-002
                    0.37500000000E-001  0.00000000000E+000 -0.45500000000E+002                   2  0.21132740377E+006  0.11717608049E+002  0.50153682108E+000  0.49846317892E+000  0.40621914675E-002  0.99593780853E+000  0.99996625150E+000  0.33748495747E-004  0.18942656185E+000  0.60384840490E-001  0.00000000000E+000  0.25775302552E+001  0.99968377640E+003  0.10010141651E-002
                    0.37500000000E-001  0.00000000000E+000 -0.46500000000E+002                   2  0.21728309056E+006  0.11735329791E+002  0.50159766219E+000  0.49840233781E+000  0.39552230770E-002  0.99604477692E+000  0.99996529444E+000  0.34705564787E-004  0.18950306020E+000  0.60356056090E-001  0.00000000000E+000  0.26501775189E+001  0.99968468355E+003  0.10010141720E-002
                    0.37500000000E-001  0.00000000000E+000 -0.47500000000E+002                   2  0.22340560325E+006  0.11751742987E+002  0.50167572919E+000  0.49832427081E+000  0.38507611457E-002  0.99614923885E+000  0.99996431053E+000  0.35689467897E-004  0.18960124288E+000  0.60319136084E-001  0.00000000000E+000  0.27248683110E+001  0.99968580400E+003  0.10011524851E-002
                    0.37500000000E-001  0.00000000000E+000 -0.48500000000E+002                   2  0.22977130598E+006  0.11769323693E+002  0.50174707091E+000  0.49825292909E+000  0.37481979989E-002  0.99625180200E+000  0.99996328756E+000  0.36712443682E-004  0.18969099234E+000  0.60285410500E-001  0.00000000000E+000  0.28025114484E+001  0.99968690942E+003  0.10012141912E-002
                    0.37500000000E-001  0.00000000000E+000 -0.49500000000E+002                   2  0.23598945151E+006  0.11790640960E+002  0.50181733805E+000  0.49818266195E+000  0.36543728118E-002  0.99634562719E+000  0.99996228835E+000  0.37711645044E-004  0.18977941328E+000  0.60252205828E-001  0.00000000000E+000  0.28783019525E+001  0.99968753989E+003  0.10012375037E-002
                    0.37500000000E-001  0.00000000000E+000 -0.50500000000E+002                   2  0.24127929529E+006  0.11848010335E+002  0.50187665030E+000  0.49812334970E+000  0.35876805715E-002  0.99641231943E+000  0.99996143890E+000  0.38561098660E-004  0.18985406710E+000  0.60224187868E-001  0.00000000000E+000  0.29423471607E+001  0.99968383824E+003  0.10012915061E-002
                    0.37500000000E-001  0.00000000000E+000 -0.51500000000E+002                   2  0.16039720109E+006  0.11852571929E+002  0.11097062007E-002  0.99889029380E+000  0.54043678976E-002  0.99459563210E+000  0.99997444013E+000  0.25559873139E-004  0.00000000000E+000  0.98816866464E+000  0.00000000000E+000  0.19538295046E+001  0.99964542592E+003  0.10003572339E-002
                    0.37500000000E-001  0.00000000000E+000 -0.52500000000E+002                   2  0.11336005537E+006  0.11864471598E+002  0.51004040338E-003  0.99948995960E+000  0.76632916319E-002  0.99233670837E+000  0.99998200121E+000  0.17998789124E-004  0.00000000000E+000  0.99368485327E+000  0.00000000000E+000  0.13789209674E+001  0.99962208615E+003  0.99993317346E-003
                    0.37500000000E-001  0.00000000000E+000 -0.53500000000E+002                   2  0.91090167963E+005  0.11875492244E+002  0.16972974718E-003  0.99983027025E+000  0.95546626074E-002  0.99044533739E+000  0.99998558112E+000  0.14418875135E-004  0.00000000000E+000  0.99740161626E+000  0.00000000000E+000  0.11067222281E+001  0.99961045273E+003  0.99961657967E-003
                    0.37500000000E-001  0.00000000000E+000 -0.54500000000E+002                   2  0.84164639430E+005  0.11886468755E+002  0.00000000000E+000  0.10000000000E+001  0.00000000000E+000  0.00000000000E+000  0.99998753460E+000  0.12465403403E-004  0.00000000000E+000  0.10000000000E+001  0.00000000000E+000  0.10220474160E+001  0.99960601731E+003  0.99945842158E-003
                    0.37500000000E-001  0.00000000000E+000 -0.55500000000E+002                   2  0.93156663761E+005  0.11896540605E+002  0.00000000000E+000  0.10000000000E+001  0.00000000000E+000  0.00000000000E+000  0.99998875600E+000  0.11244000246E-004  0.00000000000E+000  0.10000000000E+001  0.00000000000E+000  0.11318825725E+001  0.99960914120E+003  0.99945925536E-003
                    0.37500000000E-001  0.00000000000E+000 -0.56500000000E+002                   2  0.10391673410E+006  0.11907474928E+002  0.00000000000E+000  0.10000000000E+001  0.00000000000E+000  0.00000000000E+000  0.99998943858E+000  0.10561422888E-004  0.00000000000E+000  0.10000000000E+001  0.00000000000E+000  0.12633091585E+001  0.99961299841E+003  0.99944586564E-003
                    0.37500000000E-001  0.00000000000E+000 -0.57750000000E+002                   2  0.11656119428E+006  0.11920510478E+002  0.00000000000E+000  0.10000000000E+001  0.00000000000E+000  0.00000000000E+000  0.99998982738E+000  0.10172623363E-004  0.00000000000E+000  0.10000000000E+001  0.00000000000E+000  0.14177383282E+001  0.99961750803E+003  0.99946054770E-003
                    0.37500000000E-001  0.00000000000E+000 -0.59750000000E+002                   2  0.13550042992E+006  0.11941523003E+002  0.00000000000E+000  0.10000000000E+001  0.00000000000E+000  0.00000000000E+000  0.99998996897E+000  0.10031030781E-004  0.00000000000E+000  0.10000000000E+001  0.00000000000E+000  0.16490111133E+001  0.99962409443E+003  0.99945730239E-003
                    0.37500000000E-001  0.00000000000E+000 -0.63500000000E+002                   2  0.17088866081E+006  0.12000358964E+002  0.00000000000E+000  0.10000000000E+001  0.00000000000E+000  0.00000000000E+000  0.99998999738E+000  0.10002623213E-004  0.00000000000E+000  0.10000000000E+001  0.00000000000E+000  0.20809050419E+001  0.99963422865E+003  0.99943182109E-003
                    0.37500000000E-001  0.00000000000E+000 -0.68500000000E+002                   2  0.21913754156E+006  0.12051330078E+002  0.00000000000E+000  0.10000000000E+001  0.00000000000E+000  0.00000000000E+000  0.99998999981E+000  0.10000194660E-004  0.00000000000E+000  0.10000000000E+001  0.00000000000E+000  0.26697551705E+001  0.99965120219E+003  0.99942219050E-003
                    0.37500000000E-001  0.00000000000E+000 -0.76000000000E+002                   2  0.29036287947E+006  0.12122297618E+002  0.00000000000E+000  0.10000000000E+001  0.00000000000E+000  0.00000000000E+000  0.99998999999E+000  0.10000006444E-004  0.00000000000E+000  0.10000000000E+001  0.00000000000E+000  0.35386900531E+001  0.99967665127E+003  0.99939895241E-003
                    0.37500000000E-001  0.00000000000E+000 -0.86000000000E+002                   2  0.38358393831E+006  0.12191487199E+002  0.00000000000E+000  0.10000000000E+001  0.00000000000E+000  0.00000000000E+000  0.99999000000E+000  0.99999999687E-005  0.00000000000E+000  0.10000000000E+001  0.00000000000E+000  0.46757135643E+001  0.99971250135E+003  0.99935023857E-003
                    0.37500000000E-001  0.00000000000E+000 -0.93500000000E+002                   2  0.45342564877E+006  0.12060592007E+002  0.00000000000E+000  0.10000000000E+001  0.00000000000E+000  0.00000000000E+000  0.99999000000E+000  0.99999997674E-005  0.00000000000E+000  0.10000000000E+001  0.00000000000E+000  0.55308359480E+001  0.99975988239E+003  0.99932012420E-003
                    0.37500000000E-001  0.00000000000E+000 -0.97500000000E+002                   2  0.49456308358E+006  0.12340840028E+002  0.00000000000E+000  0.10000000000E+001  0.00000000000E+000  0.00000000000E+000  0.99999000000E+000  0.99999998069E-005  0.00000000000E+000  0.10000000000E+001  0.00000000000E+000  0.60271712836E+001  0.99974736234E+003  0.99934010787E-003
                    0.37500000000E-001  0.00000000000E+000 -0.10000000000E+003                   2  0.52289690045E+006  0.12886901829E+002  0.00000000000E+000  0.10000000000E+001  0.00000000000E+000  0.00000000000E+000  0.99999000000E+000  0.99999997754E-005  0.00000000000E+000  0.10000000000E+001  0.00000000000E+000  0.63604434557E+001  0.99969568026E+003  0.99937769270E-003
                    0.37500000000E-001  0.00000000000E+000 -0.50000000000E-005                   5  0.10132500000E+006  0.50100000000E+001  0.10000000000E+001  0.00000000000E+000  0.52500000000E-002  0.99475000000E+000  0.00000000000E+000  0.00000000000E+000  0.10000000000E+001  0.00000000000E+000  0.00000000000E+000  0.12647370810E+001  0.10000186787E+004  0.99000001000E+000
                    0.38420000000E+000  0.00000000000E+000 -0.25000000000E+000                   1  0.10132720153E+006  0.56272889846E+001  0.90872943010E+000  0.91270569898E-001  0.56134066554E-002  0.99438659334E+000  0.99998385855E+000  0.16141450649E-004  0.10000000000E+001  0.00000000000E+000 -0.25181307932E+006  0.12616870996E+001  0.10000120254E+004  0.30000004000E+000
                    0.28110000000E+001  0.00000000000E+000 -0.25000000000E+000                   1  0.10132724011E+006  0.57479735465E+001  0.90870250693E+000  0.91297493073E-001  0.56607586521E-002  0.99433924135E+000  0.99998385977E+000  0.16140226637E-004  0.10000000000E+001  0.00000000000E+000 -0.25164702842E+006  0.12611055627E+001  0.10000099954E+004  0.30000001000E+000
                    0.38420000000E+000  0.00000000000E+000 -0.15000000000E+001                   1  0.10133733958E+006  0.76952823048E+001  0.89518518630E+000  0.10481481370E+000  0.64748056245E-002  0.99352519438E+000  0.99998387930E+000  0.16120697246E-004  0.98796340046E+000  0.98020438763E-007 -0.18655433122E+006  0.12518709208E+001  0.99994522720E+003  0.30000007003E+000
                    0.28110000000E+001  0.00000000000E+000 -0.15000000000E+001                   1  0.10133779241E+006  0.89850791497E+001  0.89523781567E+000  0.10476218433E+000  0.70700270964E-002  0.99292997290E+000  0.99998389467E+000  0.16105327736E-004  0.98809495978E+000  0.94840769670E-007 -0.18675168115E+006  0.12457061361E+001  0.99987028592E+003  0.30000004001E+000
                    0.38420000000E+000  0.00000000000E+000 -0.23500000000E+002                   1  0.10150430510E+006  0.12877156446E+002  0.68809443270E+000  0.31190556730E+000  0.91560758616E-002  0.99084392414E+000  0.99998392232E+000  0.16077680835E-004  0.50248284767E+000  0.86501089230E-002 -0.24826675231E+005  0.12292285088E+001  0.99950025542E+003  0.30000088016E+000
                    0.28110000000E+001  0.00000000000E+000 -0.23500000000E+002                   1  0.10150529408E+006  0.14989976394E+002  0.68836533680E+000  0.31163466320E+000  0.10511790065E-001  0.98948820993E+000  0.99998395725E+000  0.16042750564E-004  0.50304286059E+000  0.86164647801E-002 -0.24864213393E+005  0.12192322044E+001  0.99921493824E+003  0.30000085009E+000
                    0.38420000000E+000  0.00000000000E+000 -0.50500000000E+002                   1  0.27751710026E+006  0.13593537784E+002  0.37732750121E-002  0.99622672499E+000  0.34973962031E-002  0.99650260380E+000  0.99995564104E+000  0.44358961923E-004  0.00000000000E+000  0.96824090045E+000 -0.24921272891E+003  0.33638427001E+001  0.99949177916E+003  0.30043911259E+000
                    0.28110000000E+001  0.00000000000E+000 -0.50500000000E+002                   1  0.27748781905E+006  0.15338515192E+002  0.30733513402E-002  0.99692664866E+000  0.39168181955E-002  0.99608318180E+000  0.99995567561E+000  0.44324388701E-004  0.00000000000E+000  0.97307988203E+000 -0.22017903878E+003  0.33422966605E+001  0.99924379509E+003  0.30044051245E+000
                    0.38420000000E+000  0.00000000000E+000 -0.10000000000E+003                   1  0.77146146912E+006  0.14714502795E+002  0.00000000000E+000  0.10000000000E+001  0.00000000000E+000  0.00000000000E+000  0.99999000000E+000  0.99999997836E-005  0.00000000000E+000  0.10000000000E+001  0.00000000000E+000  0.93267403492E+001  0.99956545880E+003  0.30064705982E+000
                    0.28110000000E+001  0.00000000000E+000 -0.10000000000E+003                   1  0.77145944124E+006  0.16384766139E+002  0.00000000000E+000  0.10000000000E+001  0.00000000000E+000  0.00000000000E+000  0.99999000000E+000  0.99999997464E-005  0.00000000000E+000  0.10000000000E+001  0.00000000000E+000  0.92720546472E+001  0.99930432321E+003  0.30064708973E+000
                    0.37500000000E-001  0.00000000000E+000 -0.10200000000E+003                   1  0.79145137060E+006  0.16678422855E+002  0.00000000000E+000  0.10000000000E+001  0.00000000000E+000  0.00000000000E+000  0.99999000000E+000  0.99999997669E-005  0.00000000000E+000  0.10000000000E+001  0.00000000000E+000  0.95027564071E+001  0.99926413447E+003  0.30064998021E+000
                    0.37500000000E-001  0.00000000000E+000 -0.10500000000E+003                   1  0.82142899619E+006  0.17326948783E+002  0.00000000000E+000  0.10000000000E+001  0.00000000000E+000  0.00000000000E+000  0.99999000000E+000  0.99999997858E-005  0.00000000000E+000  0.10000000000E+001  0.00000000000E+000  0.98406358308E+001  0.99916523742E+003  0.30065180092E+000
                    0.37500000000E-001  0.00000000000E+000 -0.11100000000E+003                   1  0.88138795369E+006  0.17784814396E+002  0.00000000000E+000  0.10000000000E+001  0.00000000000E+000  0.00000000000E+000  0.99999000000E+000  0.99999997056E-005  0.00000000000E+000  0.10000000000E+001  0.00000000000E+000  0.10542710920E+002  0.99911018123E+003  0.30061881247E+000
                    0.37500000000E-001  0.00000000000E+000 -0.12300000000E+003                   1  0.10013552694E+007  0.18143231012E+002  0.00000000000E+000  0.10000000000E+001  0.00000000000E+000  0.00000000000E+000  0.99999000000E+000  0.99999998825E-005  0.00000000000E+000  0.10000000000E+001  0.00000000000E+000  0.11964000962E+002  0.99909869036E+003  0.30054925594E+000
                    0.37500000000E-001  0.00000000000E+000 -0.14700000000E+003                   1  0.12415464885E+007  0.18648538294E+002  0.00000000000E+000  0.10000000000E+001  0.00000000000E+000  0.00000000000E+000  0.99999000000E+000  0.99999997012E-005  0.00000000000E+000  0.10000000000E+001  0.00000000000E+000  0.14810018621E+002  0.99911214367E+003  0.30061822353E+000
                    0.37500000000E-001  0.00000000000E+000 -0.19500000000E+003                   3  0.17231372364E+007  0.19625000000E+002  0.00000000000E+000  0.10000000000E+001  0.00000000000E+000  0.00000000000E+000  0.99999000000E+000  0.99999996635E-005  0.00000000000E+000  0.10000000000E+001  0.00000000000E+000  0.20489344633E+002  0.99913682150E+003  0.30063278859E+000
                    0.37500000000E-001  0.00000000000E+000 -0.25000000000E+000                   4  0.10134449845E+006  0.56184865991E+001  0.89991537268E+000  0.10008462732E+000  0.56090058432E-002  0.99439099416E+000  0.99998385568E+000  0.16144320399E-004  0.99978843171E+000  0.53208983253E-012 -0.20578681027E+006  0.12619456744E+001  0.10000121725E+004  0.30000268999E+000
                    0.37500000000E-001  0.00000000000E+000 -0.75000000000E+000                   4  0.10133673075E+006  0.66078566266E+001  0.89788437721E+000  0.10211562279E+000  0.60079856970E-002  0.99399201430E+000  0.99998386728E+000  0.16132719293E-004  0.99471097996E+000  0.83140402492E-008 -0.19714262814E+006  0.12570835381E+001  0.99998875431E+003  0.30000007000E+000
                    0.79290000000E-001  0.00000000000E+000 -0.25000000000E+000                   1  0.10132720123E+006  0.56151661768E+001  0.92699185091E+000  0.73008149088E-001  0.56086694216E-002  0.99439133058E+000  0.99998385843E+000  0.16141573675E-004  0.10000000000E+001  0.00000000000E+000 -0.42833501298E+006  0.12617455730E+001  0.10000122162E+004  0.30000004000E+000
                    0.79290000000E-001  0.00000000000E+000 -0.75000000000E+000                   1  0.10133133036E+006  0.66111801618E+001  0.89872293429E+000  0.10127706571E+000  0.60096872316E-002  0.99399031277E+000  0.99998386818E+000  0.16131815373E-004  0.99680734386E+000  0.18285889749E-008 -0.20063707803E+006  0.12570003216E+001  0.99998864676E+003  0.30000004001E+000
                    0.79290000000E-001  0.00000000000E+000 -0.15000000000E+001                   1  0.10133684430E+006  0.60662716890E+001  0.91565062521E+000  0.84349374794E-001  0.57868072477E-002  0.99421319275E+000  0.99998386152E+000  0.16138481918E-004  0.10000000000E+001  0.00000000000E+000 -0.30146163691E+006  0.12596914588E+001  0.10000035157E+004  0.30000007005E+000
                    0.79290000000E-001  0.00000000000E+000 -0.27500000000E+001                   1  0.10134681841E+006  0.80354035471E+001  0.90708137268E+000  0.92918627319E-001  0.66266689163E-002  0.99337333108E+000  0.99998388174E+000  0.16118263906E-004  0.10000000000E+001  0.00000000000E+000 -0.24197436524E+006  0.12503590453E+001  0.99992788911E+003  0.30000016007E+000
                    0.79290000000E-001  0.00000000000E+000 -0.47500000000E+001                   1  0.10136241325E+006  0.10101541817E+002  0.90068265701E+000  0.99317342987E-001  0.76220899491E-002  0.99237791005E+000  0.99998390507E+000  0.16094926157E-004  0.10000000000E+001  0.00000000000E+000 -0.20921786524E+006  0.12406845113E+001  0.99978572220E+003  0.30000022009E+000
                    0.79290000000E-001  0.00000000000E+000 -0.85000000000E+001                   1  0.10139078986E+006  0.11400306052E+002  0.88750046640E+000  0.11249953360E+000  0.83120961057E-002  0.99168790389E+000  0.99998391845E+000  0.16081550386E-004  0.96875873495E+000  0.17161240798E-005 -0.16106087732E+006  0.12348539168E+001  0.99966518119E+003  0.30000037010E+000
                    0.79290000000E-001  0.00000000000E+000 -0.13500000000E+002                   1  0.10142811538E+006  0.10313571200E+002  0.87713047654E+000  0.12286952346E+000  0.77264700254E-002  0.99227352997E+000  0.99998389735E+000  0.16102651672E-004  0.94287224658E+000  0.10522238793E-004 -0.13479309357E+006  0.12404820443E+001  0.99976767929E+003  0.30000052015E+000
                    0.79290000000E-001  0.00000000000E+000 -0.18500000000E+002                   1  0.10146677821E+006  0.10883622367E+002  0.82638863631E+000  0.17361136369E+000  0.80242938725E-002  0.99197570613E+000  0.99998389894E+000  0.16101064908E-004  0.81745800472E+000  0.35330173355E-003 -0.69859796018E+005  0.12382420721E+001  0.99971597955E+003  0.30000070017E+000
                    0.79290000000E-001  0.00000000000E+000 -0.23500000000E+002                   1  0.10150346527E+006  0.10772126101E+002  0.68802802915E+000  0.31197197085E+000  0.79617676411E-002  0.99203823236E+000  0.99998389149E+000  0.16108508647E-004  0.50234561914E+000  0.86583693044E-002 -0.24817487436E+005  0.12392229035E+001  0.99972646840E+003  0.30000091024E+000
                    0.79290000000E-001  0.00000000000E+000 -0.28500000000E+002                   1  0.10153828284E+006  0.11370091480E+002  0.55403422031E+000  0.44596577969E+000  0.82832711488E-002  0.99171672885E+000  0.99998389431E+000  0.16105691976E-004  0.26186500306E+000  0.38920236801E-001 -0.13188490041E+005  0.12368030706E+001  0.99966831968E+003  0.29989108031E+000
                    0.79290000000E-001  0.00000000000E+000 -0.33500000000E+002                   1  0.11165717010E+006  0.11517744024E+002  0.11665759002E+000  0.88334240998E+000  0.76035360372E-002  0.99239646396E+000  0.99998226988E+000  0.17730118762E-004  0.17866990378E-004  0.55309224421E+000 -0.22298442747E+004  0.13599100656E+001  0.99965795507E+003  0.29999859663E+000
                    0.79290000000E-001  0.00000000000E+000 -0.38500000000E+002                   1  0.15981832955E+006  0.11623055940E+002  0.89829493031E-001  0.91017050697E+000  0.53420728428E-002  0.99465792716E+000  0.99997452982E+000  0.25470180809E-004  0.00000000000E+000  0.62675008034E+000 -0.18435949404E+004  0.19484203899E+001  0.99966959509E+003  0.30012060852E+000
                    0.79290000000E-001  0.00000000000E+000 -0.42250000000E+002                   1  0.19655836245E+006  0.11695487762E+002  0.67623986590E-001  0.93237601341E+000  0.43618245011E-002  0.99563817550E+000  0.99996862519E+000  0.31374812768E-004  0.00000000000E+000  0.69551418549E+000 -0.15138135790E+004  0.23971461283E+001  0.99967919617E+003  0.30022622982E+000
                    0.79290000000E-001  0.00000000000E+000 -0.44250000000E+002                   1  0.21625023761E+006  0.11736474992E+002  0.56304358517E-001  0.94369564148E+000  0.39744610919E-002  0.99602553891E+000  0.99996546047E+000  0.34539525398E-004  0.00000000000E+000  0.73392231537E+000 -0.13383159055E+004  0.26375386359E+001  0.99968407702E+003  0.30028506048E+000
                    0.79290000000E-001  0.00000000000E+000 -0.45500000000E+002                   1  0.22860385760E+006  0.11760241351E+002  0.50629757895E-001  0.94937024211E+000  0.37651174339E-002  0.99623488257E+000  0.99996347508E+000  0.36524919271E-004  0.00000000000E+000  0.75418949882E+000 -0.12474225769E+004  0.27883324687E+001  0.99968733372E+003  0.30032127094E+000
                    0.79290000000E-001  0.00000000000E+000 -0.46500000000E+002                   1  0.23852131874E+006  0.11777874373E+002  0.47519063473E-001  0.95248093653E+000  0.36124417634E-002  0.99638755824E+000  0.99996188119E+000  0.38118808160E-004  0.00000000000E+000  0.76561909117E+000 -0.11965490931E+004  0.29093866177E+001  0.99969009675E+003  0.30035039135E+000
                    0.79290000000E-001  0.00000000000E+000 -0.47500000000E+002                   1  0.24846051599E+006  0.11794287974E+002  0.45047587534E-001  0.95495241247E+000  0.34713998472E-002  0.99652860015E+000  0.99996028379E+000  0.39716206648E-004  0.00000000000E+000  0.77487267493E+000 -0.11555206828E+004  0.30307049526E+001  0.99969299598E+003  0.30037900176E+000
                    0.79290000000E-001  0.00000000000E+000 -0.48500000000E+002                   1  0.25841641933E+006  0.11811781515E+002  0.42940435630E-001  0.95705956437E+000  0.33412553664E-002  0.99665874463E+000  0.99995868373E+000  0.41316272466E-004  0.00000000000E+000  0.78288915281E+000 -0.11200694927E+004  0.31522011009E+001  0.99969578234E+003  0.30040189222E+000
                    0.79290000000E-001  0.00000000000E+000 -0.49500000000E+002                   1  0.26838262184E+006  0.11833083410E+002  0.40873740507E-001  0.95912625949E+000  0.32214770049E-002  0.99677852300E+000  0.99995708206E+000  0.42917935579E-004  0.00000000000E+000  0.79087062370E+000 -0.10848384545E+004  0.32737628480E+001  0.99969815737E+003  0.30042555268E+000
                    0.79290000000E-001  0.00000000000E+000 -0.50500000000E+002                   1  0.27746624987E+006  0.11889637500E+002  0.25800201677E-002  0.99741997983E+000  0.31274944007E-002  0.99687250560E+000  0.99995562279E+000  0.44377211146E-004  0.00000000000E+000  0.97662198758E+000 -0.19812977057E+003  0.33840869685E+001  0.99969628513E+003  0.30043851272E+000
                    0.79290000000E-001  0.00000000000E+000 -0.51500000000E+002                   1  0.28723667633E+006  0.11894126115E+002  0.00000000000E+000  0.10000000000E+001  0.00000000000E+000  0.00000000000E+000  0.99995981109E+000  0.40188906417E-004  0.00000000000E+000  0.10000000000E+001  0.00000000000E+000  0.35034197891E+001  0.99970037569E+003  0.30043419313E+000
                    0.79290000000E-001  0.00000000000E+000 -0.52500000000E+002                   1  0.29720581569E+006  0.11906008878E+002  0.00000000000E+000  0.10000000000E+001  0.00000000000E+000  0.00000000000E+000  0.99996260765E+000  0.37392351196E-004  0.00000000000E+000  0.10000000000E+001  0.00000000000E+000  0.36250797859E+001  0.99970375292E+003  0.30043375358E+000
                    0.79290000000E-001  0.00000000000E+000 -0.53500000000E+002                   1  0.30717547981E+006  0.11917033034E+002  0.00000000000E+000  0.10000000000E+001  0.00000000000E+000  0.00000000000E+000  0.99996849023E+000  0.31509768232E-004  0.00000000000E+000  0.10000000000E+001  0.00000000000E+000  0.37467476970E+001  0.99970722169E+003  0.30044155402E+000
                    0.79290000000E-001  0.00000000000E+000 -0.54500000000E+002                   1  0.31714567331E+006  0.11928005356E+002  0.00000000000E+000  0.10000000000E+001  0.00000000000E+000  0.00000000000E+000  0.99997563410E+000  0.24365897966E-004  0.00000000000E+000  0.10000000000E+001  0.00000000000E+000  0.38684133883E+001  0.99971069419E+003  0.30045064446E+000
                    0.79290000000E-001  0.00000000000E+000 -0.55500000000E+002                   1  0.32711640531E+006  0.11938090233E+002  0.00000000000E+000  0.10000000000E+001  0.00000000000E+000  0.00000000000E+000  0.99998178362E+000  0.18216379056E-004  0.00000000000E+000  0.10000000000E+001  0.00000000000E+000  0.39900890876E+001  0.99971426199E+003  0.30045976489E+000
                    0.79290000000E-001  0.00000000000E+000 -0.56500000000E+002                   1  0.33708768365E+006  0.11949012558E+002  0.00000000000E+000  0.10000000000E+001  0.00000000000E+000  0.00000000000E+000  0.99998593034E+000  0.14069657793E-004  0.00000000000E+000  0.10000000000E+001  0.00000000000E+000  0.41117504178E+001  0.99971773631E+003  0.30045938532E+000