TITLE = "dt=1.000000s, t=3660.000000s, nu=0.000016, Lx=1.000000, Ly=1.000000, Lz=1.000000, Nx=12, Ny=12, Nz=12 "
VARIABLES =X, Y, Z, I, J, K, U, V, W, T, Xi, FlagP, P 
ZONE F=POINT, I=12, J=12, K=12
0.000000	0.000000	0.000000	0	0	0	0.000000	0.000000	0.000000	19.693429	0.000000	1.000000	0.000000
0.050000	0.000000	0.000000	1	0	0	0.000000	0.000000	0.000000	19.692612	0.000000	1.000000	0.000000
0.150000	0.000000	0.000000	2	0	0	0.000000	0.000000	0.000000	19.692612	0.000000	1.000000	0.000000
0.250000	0.000000	0.000000	3	0	0	0.000000	0.000000	0.000000	19.692612	0.000000	1.000000	0.000000
0.350000	0.000000	0.000000	4	0	0	0.000000	0.000000	0.000000	19.692612	0.000000	1.000000	0.000000
0.450000	0.000000	0.000000	5	0	0	0.000000	0.000000	0.000000	19.692612	0.000000	1.000000	0.000000
0.550000	0.000000	0.000000	6	0	0	0.000000	0.000000	0.000000	19.692612	0.000000	1.000000	0.000000
0.650000	0.000000	0.000000	7	0	0	0.000000	0.000000	0.000000	19.692612	0.000000	1.000000	0.000000
0.750000	0.000000	0.000000	8	0	0	0.000000	0.000000	0.000000	19.692612	0.000000	1.000000	0.000000
0.850000	0.000000	0.000000	9	0	0	0.000000	0.000000	0.000000	19.692612	0.000000	1.000000	0.000000
0.950000	0.000000	0.000000	10	0	0	0.000000	0.000000	0.000000	19.692612	0.000000	1.000000	0.000000
1.000000	0.000000	0.000000	11	0	0	0.000000	0.000000	0.000000	19.693429	0.000000	1.000000	0.000000
0.000000	0.050000	0.000000	0	1	0	0.000000	0.000000	0.000000	19.695063	0.000000	1.000000	0.000000
0.050000	0.050000	0.000000	1	1	0	0.000000	0.000000	0.000000	19.695063	0.000000	1.000000	0.048936
0.150000	0.050000	0.000000	2	1	0	0.000000	0.000000	0.000000	19.695063	0.000000	1.000000	0.047522
0.250000	0.050000	0.000000	3	1	0	0.000000	0.000000	0.000000	19.695063	0.000000	1.000000	0.046483
0.350000	0.050000	0.000000	4	1	0	0.000000	0.000000	0.000000	19.695063	0.000000	1.000000	0.045922
0.450000	0.050000	0.000000	5	1	0	0.000000	0.000000	0.000000	19.695063	0.000000	1.000000	0.045874
0.550000	0.050000	0.000000	6	1	0	0.000000	0.000000	0.000000	19.695063	0.000000	1.000000	0.046334
0.650000	0.050000	0.000000	7	1	0	0.000000	0.000000	0.000000	19.695063	0.000000	1.000000	0.047341
0.750000	0.050000	0.000000	8	1	0	0.000000	0.000000	0.000000	19.695063	0.000000	1.000000	0.049057
0.850000	0.050000	0.000000	9	1	0	0.000000	0.000000	0.000000	19.695063	0.000000	1.000000	0.051568
0.950000	0.050000	0.000000	10	1	0	0.000000	0.000000	0.000000	19.695063	0.000000	1.000000	0.051868
1.000000	0.050000	0.000000	11	1	0	0.000000	0.000000	0.000000	19.695063	0.000000	1.000000	0.000000
0.000000	0.150000	0.000000	0	2	0	0.000000	0.000000	0.000000	19.695063	0.000000	1.000000	0.000000
0.050000	0.150000	0.000000	1	2	0	0.000000	0.000000	0.000000	19.695063	0.000000	1.000000	0.048549
0.150000	0.150000	0.000000	2	2	0	0.000000	0.000000	0.000000	19.695063	0.000000	1.000000	0.047490
0.250000	0.150000	0.000000	3	2	0	0.000000	0.000000	0.000000	19.695063	0.000000	1.000000	0.046755
0.350000	0.150000	0.000000	4	2	0	0.000000	0.000000	0.000000	19.695063	0.000000	1.000000	0.046272
0.450000	0.150000	0.000000	5	2	0	0.000000	0.000000	0.000000	19.695063	0.000000	1.000000	0.046166
0.550000	0.150000	0.000000	6	2	0	0.000000	0.000000	0.000000	19.695063	0.000000	1.000000	0.046453
0.650000	0.150000	0.000000	7	2	0	0.000000	0.000000	0.000000	19.695063	0.000000	1.000000	0.047128
0.750000	0.150000	0.000000	8	2	0	0.000000	0.000000	0.000000	19.695063	0.000000	1.000000	0.048368
0.850000	0.150000	0.000000	9	2	0	0.000000	0.000000	0.000000	19.695063	0.000000	1.000000	0.050459
0.950000	0.150000	0.000000	10	2	0	0.000000	0.000000	0.000000	19.695063	0.000000	1.000000	0.051002
1.000000	0.150000	0.000000	11	2	0	0.000000	0.000000	0.000000	19.695063	0.000000	1.000000	0.000000
0.000000	0.250000	0.000000	0	3	0	0.000000	0.000000	0.000000	19.695063	0.000000	1.000000	0.000000
0.050000	0.250000	0.000000	1	3	0	0.000000	0.000000	0.000000	19.695063	0.000000	1.000000	0.047935
0.150000	0.250000	0.000000	2	3	0	0.000000	0.000000	0.000000	19.695063	0.000000	1.000000	0.047317
0.250000	0.250000	0.000000	3	3	0	0.000000	0.000000	0.000000	19.695063	0.000000	1.000000	0.047047
0.350000	0.250000	0.000000	4	3	0	0.000000	0.000000	0.000000	19.695063	0.000000	1.000000	0.046620
0.450000	0.250000	0.000000	5	3	0	0.000000	0.000000	0.000000	19.695063	0.000000	1.000000	0.046352
0.550000	0.250000	0.000000	6	3	0	0.000000	0.000000	0.000000	19.695063	0.000000	1.000000	0.046340
0.650000	0.250000	0.000000	7	3	0	0.000000	0.000000	0.000000	19.695063	0.000000	1.000000	0.046591
0.750000	0.250000	0.000000	8	3	0	0.000000	0.000000	0.000000	19.695063	0.000000	1.000000	0.047145
0.850000	0.250000	0.000000	9	3	0	0.000000	0.000000	0.000000	19.695063	0.000000	1.000000	0.048165
0.950000	0.250000	0.000000	10	3	0	0.000000	0.000000	0.000000	19.695063	0.000000	1.000000	0.048131
1.000000	0.250000	0.000000	11	3	0	0.000000	0.000000	0.000000	19.695063	0.000000	1.000000	0.000000
0.000000	0.350000	0.000000	0	4	0	0.000000	0.000000	0.000000	19.695063	0.000000	1.000000	0.000000
0.050000	0.350000	0.000000	1	4	0	0.000000	0.000000	0.000000	19.695063	0.000000	1.000000	0.047008
0.150000	0.350000	0.000000	2	4	0	0.000000	0.000000	0.000000	19.695063	0.000000	1.000000	0.047112
0.250000	0.350000	0.000000	3	4	0	0.000000	0.000000	0.000000	19.695063	0.000000	1.000000	0.047615
0.350000	0.350000	0.000000	4	4	0	0.000000	0.000000	0.000000	19.695063	0.000000	1.000000	0.047170
0.450000	0.350000	0.000000	5	4	0	0.000000	0.000000	0.000000	19.695063	0.000000	1.000000	0.046826
0.550000	0.350000	0.000000	6	4	0	0.000000	0.000000	0.000000	19.695063	0.000000	1.000000	0.046505
0.650000	0.350000	0.000000	7	4	0	0.000000	0.000000	0.000000	19.695063	0.000000	1.000000	0.046393
0.750000	0.350000	0.000000	8	4	0	0.000000	0.000000	0.000000	19.695063	0.000000	1.000000	0.046520
0.850000	0.350000	0.000000	9	4	0	0.000000	0.000000	0.000000	19.695063	0.000000	1.000000	0.046753
0.950000	0.350000	0.000000	10	4	0	0.000000	0.000000	0.000000	19.695063	0.000000	1.000000	0.046250
1.000000	0.350000	0.000000	11	4	0	0.000000	0.000000	0.000000	19.695063	0.000000	1.000000	0.000000
0.000000	0.450000	0.000000	0	5	0	0.000000	0.000000	0.000000	19.695063	0.000000	1.000000	0.000000
0.050000	0.450000	0.000000	1	5	0	0.000000	0.000000	0.000000	19.695063	0.000000	1.000000	0.046391
0.150000	0.450000	0.000000	2	5	0	0.000000	0.000000	0.000000	19.695063	0.000000	1.000000	0.046600
0.250000	0.450000	0.000000	3	5	0	0.000000	0.000000	0.000000	19.695063	0.000000	1.000000	0.046925
0.350000	0.450000	0.000000	4	5	0	0.000000	0.000000	0.000000	19.695063	0.000000	1.000000	0.047276
0.450000	0.450000	0.000000	5	5	0	0.000000	0.000000	0.000000	19.695063	0.000000	1.000000	0.047568
0.550000	0.450000	0.000000	6	5	0	0.000000	0.000000	0.000000	19.695063	0.000000	1.000000	0.047050
0.650000	0.450000	0.000000	7	5	0	0.000000	0.000000	0.000000	19.695063	0.000000	1.000000	0.046618
0.750000	0.450000	0.000000	8	5	0	0.000000	0.000000	0.000000	19.695063	0.000000	1.000000	0.046411
0.850000	0.450000	0.000000	9	5	0	0.000000	0.000000	0.000000	19.695063	0.000000	1.000000	0.046341
0.950000	0.450000	0.000000	10	5	0	0.000000	0.000000	0.000000	19.695063	0.000000	1.000000	0.045892
1.000000	0.450000	0.000000	11	5	0	0.000000	0.000000	0.000000	19.695063	0.000000	1.000000	0.000000
0.000000	0.550000	0.000000	0	6	0	0.000000	0.000000	0.000000	19.695063	0.000000	1.000000	0.000000
0.050000	0.550000	0.000000	1	6	0	0.000000	0.000000	0.000000	19.695063	0.000000	1.000000	0.045992
0.150000	0.550000	0.000000	2	6	0	0.000000	0.000000	0.000000	19.695063	0.000000	1.000000	0.046426
0.250000	0.550000	0.000000	3	6	0	0.000000	0.000000	0.000000	19.695063	0.000000	1.000000	0.046524
0.350000	0.550000	0.000000	4	6	0	0.000000	0.000000	0.000000	19.695063	0.000000	1.000000	0.046678
0.450000	0.550000	0.000000	5	6	0	0.000000	0.000000	0.000000	19.695063	0.000000	1.000000	0.047070
0.550000	0.550000	0.000000	6	6	0	0.000000	0.000000	0.000000	19.695063	0.000000	1.000000	0.047519
0.650000	0.550000	0.000000	7	6	0	0.000000	0.000000	0.000000	19.695063	0.000000	1.000000	0.047207
0.750000	0.550000	0.000000	8	6	0	0.000000	0.000000	0.000000	19.695063	0.000000	1.000000	0.046732
0.850000	0.550000	0.000000	9	6	0	0.000000	0.000000	0.000000	19.695063	0.000000	1.000000	0.046483
0.950000	0.550000	0.000000	10	6	0	0.000000	0.000000	0.000000	19.695063	0.000000	1.000000	0.046220
1.000000	0.550000	0.000000	11	6	0	0.000000	0.000000	0.000000	19.695063	0.000000	1.000000	0.000000
0.000000	0.650000	0.000000	0	7	0	0.000000	0.000000	0.000000	19.695063	0.000000	1.000000	0.000000
0.050000	0.650000	0.000000	1	7	0	0.000000	0.000000	0.000000	19.695063	0.000000	1.000000	0.046459
0.150000	0.650000	0.000000	2	7	0	0.000000	0.000000	0.000000	19.695063	0.000000	1.000000	0.046987
0.250000	0.650000	0.000000	3	7	0	0.000000	0.000000	0.000000	19.695063	0.000000	1.000000	0.046738
0.350000	0.650000	0.000000	4	7	0	0.000000	0.000000	0.000000	19.695063	0.000000	1.000000	0.046500
0.450000	0.650000	0.000000	5	7	0	0.000000	0.000000	0.000000	19.695063	0.000000	1.000000	0.046524
0.550000	0.650000	0.000000	6	7	0	0.000000	0.000000	0.000000	19.695063	0.000000	1.000000	0.046839
0.650000	0.650000	0.000000	7	7	0	0.000000	0.000000	0.000000	19.695063	0.000000	1.000000	0.047280
0.750000	0.650000	0.000000	8	7	0	0.000000	0.000000	0.000000	19.695063	0.000000	1.000000	0.047332
0.850000	0.650000	0.000000	9	7	0	0.000000	0.000000	0.000000	19.695063	0.000000	1.000000	0.046984
0.950000	0.650000	0.000000	10	7	0	0.000000	0.000000	0.000000	19.695063	0.000000	1.000000	0.046863
1.000000	0.650000	0.000000	11	7	0	0.000000	0.000000	0.000000	19.695063	0.000000	1.000000	0.000000
0.000000	0.750000	0.000000	0	8	0	0.000000	0.000000	0.000000	19.695063	0.000000	1.000000	0.000000
0.050000	0.750000	0.000000	1	8	0	0.000000	0.000000	0.000000	19.695063	0.000000	1.000000	0.048574
0.150000	0.750000	0.000000	2	8	0	0.000000	0.000000	0.000000	19.695063	0.000000	1.000000	0.048647
0.250000	0.750000	0.000000	3	8	0	0.000000	0.000000	0.000000	19.695063	0.000000	1.000000	0.047524
0.350000	0.750000	0.000000	4	8	0	0.000000	0.000000	0.000000	19.695063	0.000000	1.000000	0.046788
0.450000	0.750000	0.000000	5	8	0	0.000000	0.000000	0.000000	19.695063	0.000000	1.000000	0.046406
0.550000	0.750000	0.000000	6	8	0	0.000000	0.000000	0.000000	19.695063	0.000000	1.000000	0.046405
0.650000	0.750000	0.000000	7	8	0	0.000000	0.000000	0.000000	19.695063	0.000000	1.000000	0.046725
0.750000	0.750000	0.000000	8	8	0	0.000000	0.000000	0.000000	19.695063	0.000000	1.000000	0.047099
0.850000	0.750000	0.000000	9	8	0	0.000000	0.000000	0.000000	19.695063	0.000000	1.000000	0.047361
0.950000	0.750000	0.000000	10	8	0	0.000000	0.000000	0.000000	19.695063	0.000000	1.000000	0.047425
1.000000	0.750000	0.000000	11	8	0	0.000000	0.000000	0.000000	19.695063	0.000000	1.000000	0.000000
0.000000	0.850000	0.000000	0	9	0	0.000000	0.000000	0.000000	19.695063	0.000000	1.000000	0.000000
0.050000	0.850000	0.000000	1	9	0	0.000000	0.000000	0.000000	19.695063	0.000000	1.000000	0.051677
0.150000	0.850000	0.000000	2	9	0	0.000000	0.000000	0.000000	19.695063	0.000000	1.000000	0.051025
0.250000	0.850000	0.000000	3	9	0	0.000000	0.000000	0.000000	19.695063	0.000000	1.000000	0.048728
0.350000	0.850000	0.000000	4	9	0	0.000000	0.000000	0.000000	19.695063	0.000000	1.000000	0.047305
0.450000	0.850000	0.000000	5	9	0	0.000000	0.000000	0.000000	19.695063	0.000000	1.000000	0.046534
0.550000	0.850000	0.000000	6	9	0	0.000000	0.000000	0.000000	19.695063	0.000000	1.000000	0.046242
0.650000	0.850000	0.000000	7	9	0	0.000000	0.000000	0.000000	19.695063	0.000000	1.000000	0.046414
0.750000	0.850000	0.000000	8	9	0	0.000000	0.000000	0.000000	19.695063	0.000000	1.000000	0.046907
0.850000	0.850000	0.000000	9	9	0	0.000000	0.000000	0.000000	19.695063	0.000000	1.000000	0.047511
0.950000	0.850000	0.000000	10	9	0	0.000000	0.000000	0.000000	19.695063	0.000000	1.000000	0.048331
1.000000	0.850000	0.000000	11	9	0	0.000000	0.000000	0.000000	19.695063	0.000000	1.000000	0.000000
0.000000	0.950000	0.000000	0	10	0	0.000000	0.000000	0.000000	19.695063	0.000000	1.000000	0.000000
0.050000	0.950000	0.000000	1	10	0	0.000000	0.000000	0.000000	19.695063	0.000000	1.000000	0.051995
0.150000	0.950000	0.000000	2	10	0	0.000000	0.000000	0.000000	19.695063	0.000000	1.000000	0.051661
0.250000	0.950000	0.000000	3	10	0	0.000000	0.000000	0.000000	19.695063	0.000000	1.000000	0.049110
0.350000	0.950000	0.000000	4	10	0	0.000000	0.000000	0.000000	19.695063	0.000000	1.000000	0.047417
0.450000	0.950000	0.000000	5	10	0	0.000000	0.000000	0.000000	19.695063	0.000000	1.000000	0.046435
0.550000	0.950000	0.000000	6	10	0	0.000000	0.000000	0.000000	19.695063	0.000000	1.000000	0.046005
0.650000	0.950000	0.000000	7	10	0	0.000000	0.000000	0.000000	19.695063	0.000000	1.000000	0.046120
0.750000	0.950000	0.000000	8	10	0	0.000000	0.000000	0.000000	19.695063	0.000000	1.000000	0.046668
0.850000	0.950000	0.000000	9	10	0	0.000000	0.000000	0.000000	19.695063	0.000000	1.000000	0.047611
0.950000	0.950000	0.000000	10	10	0	0.000000	0.000000	0.000000	19.695063	0.000000	1.000000	0.048865
1.000000	0.950000	0.000000	11	10	0	0.000000	0.000000	0.000000	19.695063	0.000000	1.000000	0.000000
0.000000	1.000000	0.000000	0	11	0	0.000000	0.000000	0.000000	19.693461	0.000000	1.000000	0.000000
0.050000	1.000000	0.000000	1	11	0	0.000000	0.000000	0.000000	19.692659	0.000000	1.000000	0.000000
0.150000	1.000000	0.000000	2	11	0	0.000000	0.000000	0.000000	19.692659	0.000000	1.000000	0.000000
0.250000	1.000000	0.000000	3	11	0	0.000000	0.000000	0.000000	19.692659	0.000000	1.000000	0.000000
0.350000	1.000000	0.000000	4	11	0	0.000000	0.000000	0.000000	19.692659	0.000000	1.000000	0.000000
0.450000	1.000000	0.000000	5	11	0	0.000000	0.000000	0.000000	19.692659	0.000000	1.000000	0.000000
0.550000	1.000000	0.000000	6	11	0	0.000000	0.000000	0.000000	19.692659	0.000000	1.000000	0.000000
0.650000	1.000000	0.000000	7	11	0	0.000000	0.000000	0.000000	19.692659	0.000000	1.000000	0.000000
0.750000	1.000000	0.000000	8	11	0	0.000000	0.000000	0.000000	19.692659	0.000000	1.000000	0.000000
0.850000	1.000000	0.000000	9	11	0	0.000000	0.000000	0.000000	19.692659	0.000000	1.000000	0.000000
0.950000	1.000000	0.000000	10	11	0	0.000000	0.000000	0.000000	19.692659	0.000000	1.000000	0.000000
1.000000	1.000000	0.000000	11	11	0	0.000000	0.000000	0.000000	19.693461	0.000000	1.000000	0.000000
0.000000	0.000000	0.050000	0	0	1	0.000000	0.000000	0.000000	19.692612	0.000000	1.000000	0.000000
0.050000	0.000000	0.050000	1	0	1	0.000000	0.000000	0.000000	19.692612	0.000000	1.000000	0.048936
0.150000	0.000000	0.050000	2	0	1	0.000000	0.000000	0.000000	19.692612	0.000000	1.000000	0.047522
0.250000	0.000000	0.050000	3	0	1	0.000000	0.000000	0.000000	19.692612	0.000000	1.000000	0.046483
0.350000	0.000000	0.050000	4	0	1	0.000000	0.000000	0.000000	19.692612	0.000000	1.000000	0.045922
0.450000	0.000000	0.050000	5	0	1	0.000000	0.000000	0.000000	19.692612	0.000000	1.000000	0.045874
0.550000	0.000000	0.050000	6	0	1	0.000000	0.000000	0.000000	19.692612	0.000000	1.000000	0.046334
0.650000	0.000000	0.050000	7	0	1	0.000000	0.000000	0.000000	19.692612	0.000000	1.000000	0.047341
0.750000	0.000000	0.050000	8	0	1	0.000000	0.000000	0.000000	19.692612	0.000000	1.000000	0.049057
0.850000	0.000000	0.050000	9	0	1	0.000000	0.000000	0.000000	19.692612	0.000000	1.000000	0.051568
0.950000	0.000000	0.050000	10	0	1	0.000000	0.000000	0.000000	19.692612	0.000000	1.000000	0.051868
1.000000	0.000000	0.050000	11	0	1	0.000000	0.000000	0.000000	19.692612	0.000000	1.000000	0.000000
0.000000	0.050000	0.050000	0	1	1	0.000000	0.000000	0.000000	19.694486	0.000000	1.000000	0.048936
0.050000	0.050000	0.050000	1	1	1	-0.030177	0.006150	0.024032	17.325099	0.000000	-1.000000	0.048936
0.150000	0.050000	0.050000	2	1	1	-0.072999	-0.001024	0.013677	17.230362	0.000000	-1.000000	0.047522
0.250000	0.050000	0.050000	3	1	1	-0.091810	0.000210	0.005963	17.196275	0.000000	-1.000000	0.046483
0.350000	0.050000	0.050000	4	1	1	-0.100148	0.003672	-0.001495	17.167622	0.000000	-1.000000	0.045922
0.450000	0.050000	0.050000	5	1	1	-0.102406	0.007225	-0.007137	17.141302	0.000000	-1.000000	0.045874
0.550000	0.050000	0.050000	6	1	1	-0.101400	0.010400	-0.011491	17.111420	0.000000	-1.000000	0.046334
0.650000	0.050000	0.050000	7	1	1	-0.097045	0.012767	-0.016030	17.079933	0.000000	-1.000000	0.047341
0.750000	0.050000	0.050000	8	1	1	-0.086441	0.013505	-0.020846	17.052767	0.000000	-1.000000	0.049057
0.850000	0.050000	0.050000	9	1	1	-0.065044	0.011790	-0.025846	17.036278	0.000000	-1.000000	0.051568
0.950000	0.050000	0.050000	10	1	1	-0.025494	0.007778	-0.033271	17.033915	0.000000	-1.000000	0.051868
1.000000	0.050000	0.050000	11	1	1	0.000000	0.000000	0.000000	19.694499	0.000000	1.000000	0.051868
0.000000	0.150000	0.050000	0	2	1	0.000000	0.000000	0.000000	19.694486	0.000000	1.000000	0.048549
0.050000	0.150000	0.050000	1	2	1	-0.025952	0.017758	0.020503	17.242075	0.000000	-1.000000	0.048549
0.150000	0.150000	0.050000	2	2	1	-0.062912	0.002507	0.006465	17.118529	0.000000	-1.000000	0.047490
0.250000	0.150000	0.050000	3	2	1	-0.080540	0.003730	0.003318	17.115775	0.000000	-1.000000	0.046755
0.350000	0.150000	0.050000	4	2	1	-0.090491	0.010918	-0.000238	17.107582	0.000000	-1.000000	0.046272
0.450000	0.150000	0.050000	5	2	1	-0.094501	0.018845	-0.003713	17.092009	0.000000	-1.000000	0.046166
0.550000	0.150000	0.050000	6	2	1	-0.093942	0.026088	-0.006524	17.069735	0.000000	-1.000000	0.046453
0.650000	0.150000	0.050000	7	2	1	-0.089492	0.032033	-0.009712	17.041961	0.000000	-1.000000	0.047128
0.750000	0.150000	0.050000	8	2	1	-0.080049	0.035817	-0.015036	17.008286	0.000000	-1.000000	0.048368
0.850000	0.150000	0.050000	9	2	1	-0.061851	0.036322	-0.024709	16.968014	0.000000	-1.000000	0.050459
0.950000	0.150000	0.050000	10	2	1	-0.024941	0.031710	-0.041094	16.934711	0.000000	-1.000000	0.051002
1.000000	0.150000	0.050000	11	2	1	0.000000	0.000000	0.000000	19.694499	0.000000	1.000000	0.051002
0.000000	0.250000	0.050000	0	3	1	0.000000	0.000000	0.000000	19.694486	0.000000	1.000000	0.047935
0.050000	0.250000	0.050000	1	3	1	-0.026237	0.030283	0.019177	17.207984	0.000000	-1.000000	0.047935
0.150000	0.250000	0.050000	2	3	1	-0.060395	0.004425	0.010567	17.090322	0.000000	-1.000000	0.047317
0.250000	0.250000	0.050000	3	3	1	-0.071151	0.001523	0.008360	17.081935	0.000000	-1.000000	0.047047
0.350000	0.250000	0.050000	4	3	1	-0.077122	0.013695	0.003938	17.076699	0.000000	-1.000000	0.046620
0.450000	0.250000	0.050000	5	3	1	-0.080923	0.024171	-0.000264	17.064728	0.000000	-1.000000	0.046352
0.550000	0.250000	0.050000	6	3	1	-0.080155	0.033645	-0.003700	17.048272	0.000000	-1.000000	0.046340
0.650000	0.250000	0.050000	7	3	1	-0.075385	0.041472	-0.006277	17.024856	0.000000	-1.000000	0.046591
0.750000	0.250000	0.050000	8	3	1	-0.066140	0.048319	-0.009601	16.996320	0.000000	-1.000000	0.047145
0.850000	0.250000	0.050000	9	3	1	-0.050010	0.053886	-0.015043	16.966964	0.000000	-1.000000	0.048165
0.950000	0.250000	0.050000	10	3	1	-0.019893	0.053088	-0.025115	16.956101	0.000000	-1.000000	0.048131
1.000000	0.250000	0.050000	11	3	1	0.000000	0.000000	0.000000	19.694499	0.000000	1.000000	0.048131
0.000000	0.350000	0.050000	0	4	1	0.000000	0.000000	0.000000	19.694486	0.000000	1.000000	0.047008
0.050000	0.350000	0.050000	1	4	1	0.000887	0.010783	0.025687	17.308025	0.000000	-1.000000	0.047008
0.150000	0.350000	0.050000	2	4	1	-0.000317	-0.015543	0.019429	17.121106	0.000000	-1.000000	0.047112
0.250000	0.350000	0.050000	3	4	1	-0.019510	-0.012757	0.025870	17.090268	0.000000	-1.000000	0.047615
0.350000	0.350000	0.050000	4	4	1	-0.049306	0.010499	0.015095	17.066364	0.000000	-1.000000	0.047170
0.450000	0.350000	0.050000	5	4	1	-0.063279	0.018313	0.008070	17.051901	0.000000	-1.000000	0.046826
0.550000	0.350000	0.050000	6	4	1	-0.064040	0.033880	0.001517	17.038704	0.000000	-1.000000	0.046505
0.650000	0.350000	0.050000	7	4	1	-0.060082	0.044209	-0.003237	17.025389	0.000000	-1.000000	0.046393
0.750000	0.350000	0.050000	8	4	1	-0.050573	0.051559	-0.005614	17.010643	0.000000	-1.000000	0.046520
0.850000	0.350000	0.050000	9	4	1	-0.035439	0.057083	-0.007438	17.002354	0.000000	-1.000000	0.046753
0.950000	0.350000	0.050000	10	4	1	-0.013188	0.055390	-0.010265	17.019536	0.000000	-1.000000	0.046250
1.000000	0.350000	0.050000	11	4	1	0.000000	0.000000	0.000000	19.694499	0.000000	1.000000	0.046250
0.000000	0.450000	0.050000	0	5	1	0.000000	0.000000	0.000000	19.694486	0.000000	1.000000	0.046391
0.050000	0.450000	0.050000	1	5	1	0.005194	-0.032545	0.011570	17.094148	0.000000	-1.000000	0.046391
0.150000	0.450000	0.050000	2	5	1	0.014342	-0.043826	0.007004	17.038058	0.000000	-1.000000	0.046600
0.250000	0.450000	0.050000	3	5	1	0.020430	-0.034738	0.011088	17.032181	0.000000	-1.000000	0.046925
0.350000	0.450000	0.050000	4	5	1	0.019189	-0.013837	0.025315	17.059312	0.000000	-1.000000	0.047276
0.450000	0.450000	0.050000	5	5	1	-0.011121	0.000015	0.038444	17.124565	0.000000	-1.000000	0.047568
0.550000	0.450000	0.050000	6	5	1	-0.041085	0.021116	0.013760	17.051282	0.000000	-1.000000	0.047050
0.650000	0.450000	0.050000	7	5	1	-0.042866	0.037928	0.004829	17.038258	0.000000	-1.000000	0.046618
0.750000	0.450000	0.050000	8	5	1	-0.036398	0.047283	-0.001396	17.033498	0.000000	-1.000000	0.046411
0.850000	0.450000	0.050000	9	5	1	-0.023474	0.051159	-0.003404	17.041493	0.000000	-1.000000	0.046341
0.950000	0.450000	0.050000	10	5	1	-0.007884	0.047188	-0.002601	17.075098	0.000000	-1.000000	0.045892
1.000000	0.450000	0.050000	11	5	1	0.000000	0.000000	0.000000	19.694499	0.000000	1.000000	0.045892
0.000000	0.550000	0.050000	0	6	1	0.000000	0.000000	0.000000	19.694486	0.000000	1.000000	0.045992
0.050000	0.550000	0.050000	1	6	1	0.007790	-0.055008	-0.002084	17.020748	0.000000	-1.000000	0.045992
0.150000	0.550000	0.050000	2	6	1	0.022974	-0.058217	-0.003953	16.995576	0.000000	-1.000000	0.046426
0.250000	0.550000	0.050000	3	6	1	0.036373	-0.051303	-0.002658	16.995993	0.000000	-1.000000	0.046524
0.350000	0.550000	0.050000	4	6	1	0.043873	-0.040968	0.003699	17.004759	0.000000	-1.000000	0.046678
0.450000	0.550000	0.050000	5	6	1	0.042468	-0.022294	0.013698	17.022671	0.000000	-1.000000	0.047070
0.550000	0.550000	0.050000	6	6	1	0.011811	-0.001740	0.039887	17.117508	0.000000	-1.000000	0.047519
0.650000	0.550000	0.050000	7	6	1	-0.017889	0.010527	0.023264	17.085176	0.000000	-1.000000	0.047207
0.750000	0.550000	0.050000	8	6	1	-0.019452	0.033793	0.009293	17.068566	0.000000	-1.000000	0.046732
0.850000	0.550000	0.050000	9	6	1	-0.014044	0.038366	0.003466	17.083641	0.000000	-1.000000	0.046483
0.950000	0.550000	0.050000	10	6	1	-0.004506	0.031114	0.006290	17.138909	0.000000	-1.000000	0.046220
1.000000	0.550000	0.050000	11	6	1	0.000000	0.000000	0.000000	19.694499	0.000000	1.000000	0.046220
0.000000	0.650000	0.050000	0	7	1	0.000000	0.000000	0.000000	19.694486	0.000000	1.000000	0.046459
0.050000	0.650000	0.050000	1	7	1	0.012246	-0.062028	-0.010928	16.971053	0.000000	-1.000000	0.046459
0.150000	0.650000	0.050000	2	7	1	0.033877	-0.061607	-0.009434	16.959471	0.000000	-1.000000	0.046987
0.250000	0.650000	0.050000	3	7	1	0.050005	-0.053539	-0.007853	16.974913	0.000000	-1.000000	0.046738
0.350000	0.650000	0.050000	4	7	1	0.060524	-0.044704	-0.005235	16.995143	0.000000	-1.000000	0.046500
0.450000	0.650000	0.050000	5	7	1	0.064697	-0.033738	0.000247	17.009357	0.000000	-1.000000	0.046524
0.550000	0.650000	0.050000	6	7	1	0.062114	-0.018909	0.008020	17.025994	0.000000	-1.000000	0.046839
0.650000	0.650000	0.050000	7	7	1	0.040300	-0.010692	0.018734	17.052275	0.000000	-1.000000	0.047280
0.750000	0.650000	0.050000	8	7	1	0.009910	0.010958	0.024721	17.110919	0.000000	-1.000000	0.047332
0.850000	0.650000	0.050000	9	7	1	-0.001211	0.016178	0.013265	17.133354	0.000000	-1.000000	0.046984
0.950000	0.650000	0.050000	10	7	1	-0.000389	0.001192	0.018743	17.257640	0.000000	-1.000000	0.046863
1.000000	0.650000	0.050000	11	7	1	0.000000	0.000000	0.000000	19.694499	0.000000	1.000000	0.046863
0.000000	0.750000	0.050000	0	8	1	0.000000	0.000000	0.000000	19.694486	0.000000	1.000000	0.048574
0.050000	0.750000	0.050000	1	8	1	0.018799	-0.055831	-0.026315	16.908288	0.000000	-1.000000	0.048574
0.150000	0.750000	0.050000	2	8	1	0.048536	-0.054012	-0.018487	16.921929	0.000000	-1.000000	0.048647
0.250000	0.750000	0.050000	3	8	1	0.065999	-0.046092	-0.012866	16.957339	0.000000	-1.000000	0.047524
0.350000	0.750000	0.050000	4	8	1	0.076056	-0.038099	-0.008684	16.992399	0.000000	-1.000000	0.046788
0.450000	0.750000	0.050000	5	8	1	0.080733	-0.030435	-0.005094	17.019634	0.000000	-1.000000	0.046406
0.550000	0.750000	0.050000	6	8	1	0.080392	-0.021748	-0.000719	17.037434	0.000000	-1.000000	0.046405
0.650000	0.750000	0.050000	7	8	1	0.075143	-0.011209	0.004384	17.050450	0.000000	-1.000000	0.046725
0.750000	0.750000	0.050000	8	8	1	0.063021	-0.003857	0.010012	17.062527	0.000000	-1.000000	0.047099
0.850000	0.750000	0.050000	9	8	1	0.041965	-0.000739	0.015925	17.099330	0.000000	-1.000000	0.047361
0.950000	0.750000	0.050000	10	8	1	0.014634	-0.024520	0.021222	17.278649	0.000000	-1.000000	0.047425
1.000000	0.750000	0.050000	11	8	1	0.000000	0.000000	0.000000	19.694499	0.000000	1.000000	0.047425
0.000000	0.850000	0.050000	0	9	1	0.000000	0.000000	0.000000	19.694486	0.000000	1.000000	0.051677
0.050000	0.850000	0.050000	1	9	1	0.024446	-0.026962	-0.045803	16.888216	0.000000	-1.000000	0.051677
0.150000	0.850000	0.050000	2	9	1	0.061543	-0.029319	-0.029800	16.923921	0.000000	-1.000000	0.051025
0.250000	0.850000	0.050000	3	9	1	0.080684	-0.027469	-0.018779	16.971362	0.000000	-1.000000	0.048728
0.350000	0.850000	0.050000	4	9	1	0.090255	-0.024027	-0.012006	17.012488	0.000000	-1.000000	0.047305
0.450000	0.850000	0.050000	5	9	1	0.094296	-0.019567	-0.007884	17.044399	0.000000	-1.000000	0.046534
0.550000	0.850000	0.050000	6	9	1	0.093970	-0.013982	-0.004276	17.067655	0.000000	-1.000000	0.046242
0.650000	0.850000	0.050000	7	9	1	0.088455	-0.007249	-0.000349	17.082118	0.000000	-1.000000	0.046414
0.750000	0.850000	0.050000	8	9	1	0.077176	-0.001310	0.002858	17.088541	0.000000	-1.000000	0.046907
0.850000	0.850000	0.050000	9	9	1	0.060908	-0.000190	0.005453	17.094030	0.000000	-1.000000	0.047511
0.950000	0.850000	0.050000	10	9	1	0.025845	-0.023977	0.018726	17.251410	0.000000	-1.000000	0.048331
1.000000	0.850000	0.050000	11	9	1	0.000000	0.000000	0.000000	19.694499	0.000000	1.000000	0.048331
0.000000	0.950000	0.050000	0	10	1	0.000000	0.000000	0.000000	19.694486	0.000000	1.000000	0.051995
0.050000	0.950000	0.050000	1	10	1	0.026053	-0.002803	-0.028860	17.043619	0.000000	-1.000000	0.051995
0.150000	0.950000	0.050000	2	10	1	0.066255	-0.006087	-0.020240	17.046561	0.000000	-1.000000	0.051661
0.250000	0.950000	0.050000	3	10	1	0.087890	-0.007592	-0.015083	17.061451	0.000000	-1.000000	0.049110
0.350000	0.950000	0.050000	4	10	1	0.098927	-0.007552	-0.011107	17.083682	0.000000	-1.000000	0.047417
0.450000	0.950000	0.050000	5	10	1	0.103894	-0.006324	-0.007743	17.109263	0.000000	-1.000000	0.046435
0.550000	0.950000	0.050000	6	10	1	0.105028	-0.004210	-0.003927	17.134773	0.000000	-1.000000	0.046005
0.650000	0.950000	0.050000	7	10	1	0.101763	-0.001335	0.001650	17.160049	0.000000	-1.000000	0.046120
0.750000	0.950000	0.050000	8	10	1	0.091988	0.001444	0.008241	17.188617	0.000000	-1.000000	0.046668
0.850000	0.950000	0.050000	9	10	1	0.072765	0.001790	0.014228	17.220438	0.000000	-1.000000	0.047611
0.950000	0.950000	0.050000	10	10	1	0.030167	-0.008426	0.021747	17.318386	0.000000	-1.000000	0.048865
1.000000	0.950000	0.050000	11	10	1	0.000000	0.000000	0.000000	19.694499	0.000000	1.000000	0.048865
0.000000	1.000000	0.050000	0	11	1	0.000000	0.000000	0.000000	19.692659	0.000000	1.000000	0.000000
0.050000	1.000000	0.050000	1	11	1	0.000000	0.000000	0.000000	19.692659	0.000000	1.000000	0.051995
0.150000	1.000000	0.050000	2	11	1	0.000000	0.000000	0.000000	19.692659	0.000000	1.000000	0.051661
0.250000	1.000000	0.050000	3	11	1	0.000000	0.000000	0.000000	19.692659	0.000000	1.000000	0.049110
0.350000	1.000000	0.050000	4	11	1	0.000000	0.000000	0.000000	19.692659	0.000000	1.000000	0.047417
0.450000	1.000000	0.050000	5	11	1	0.000000	0.000000	0.000000	19.692659	0.000000	1.000000	0.046435
0.550000	1.000000	0.050000	6	11	1	0.000000	0.000000	0.000000	19.692659	0.000000	1.000000	0.046005
0.650000	1.000000	0.050000	7	11	1	0.000000	0.000000	0.000000	19.692659	0.000000	1.000000	0.046120
0.750000	1.000000	0.050000	8	11	1	0.000000	0.000000	0.000000	19.692659	0.000000	1.000000	0.046668
0.850000	1.000000	0.050000	9	11	1	0.000000	0.000000	0.000000	19.692659	0.000000	1.000000	0.047611
0.950000	1.000000	0.050000	10	11	1	0.000000	0.000000	0.000000	19.692659	0.000000	1.000000	0.048865
1.000000	1.000000	0.050000	11	11	1	0.000000	0.000000	0.000000	19.692659	0.000000	1.000000	0.000000
0.000000	0.000000	0.150000	0	0	2	0.000000	0.000000	0.000000	19.692612	0.000000	1.000000	0.000000
0.050000	0.000000	0.150000	1	0	2	0.000000	0.000000	0.000000	19.692612	0.000000	1.000000	0.038918
0.150000	0.000000	0.150000	2	0	2	0.000000	0.000000	0.000000	19.692612	0.000000	1.000000	0.037121
0.250000	0.000000	0.150000	3	0	2	0.000000	0.000000	0.000000	19.692612	0.000000	1.000000	0.035933
0.350000	0.000000	0.150000	4	0	2	0.000000	0.000000	0.000000	19.692612	0.000000	1.000000	0.035424
0.450000	0.000000	0.150000	5	0	2	0.000000	0.000000	0.000000	19.692612	0.000000	1.000000	0.035343
0.550000	0.000000	0.150000	6	0	2	0.000000	0.000000	0.000000	19.692612	0.000000	1.000000	0.035509
0.650000	0.000000	0.150000	7	0	2	0.000000	0.000000	0.000000	19.692612	0.000000	1.000000	0.036002
0.750000	0.000000	0.150000	8	0	2	0.000000	0.000000	0.000000	19.692612	0.000000	1.000000	0.037062
0.850000	0.000000	0.150000	9	0	2	0.000000	0.000000	0.000000	19.692612	0.000000	1.000000	0.038824
0.950000	0.000000	0.150000	10	0	2	0.000000	0.000000	0.000000	19.692612	0.000000	1.000000	0.039376
1.000000	0.000000	0.150000	11	0	2	0.000000	0.000000	0.000000	19.692612	0.000000	1.000000	0.000000
0.000000	0.050000	0.150000	0	1	2	0.000000	0.000000	0.000000	19.694486	0.000000	1.000000	0.038918
0.050000	0.050000	0.150000	1	1	2	-0.021371	0.009956	0.059482	17.318064	0.000000	-1.000000	0.038918
0.150000	0.050000	0.150000	2	1	2	-0.050695	0.003127	0.032187	17.215193	0.000000	-1.000000	0.037121