TITLE = "dt=10.000000s, t=7200.000000s, nu=0.000015, Lx=1.000000, Ly=1.000000, Lz=1.000000, Nx=22, Ny=22, Nz=22 "
VARIABLES =X, Y, Z, I, J, K, U, V, W, T, Xi, FlagP, P, Vel 
ZONE F=POINT, I=22, J=22, K=22
0.000000	0.000000	0.000000	0	0	0	0.000000	0.000000	0.000000	0.010795	0.000000	1.000000	0.000000	0.000000
0.025000	0.000000	0.000000	1	0	0	0.000000	0.000000	0.000000	0.032386	0.000000	1.000000	0.000000	0.000000
0.075000	0.000000	0.000000	2	0	0	0.000000	0.000000	0.000000	0.059081	0.000000	1.000000	0.000000	0.000000
0.125000	0.000000	0.000000	3	0	0	0.000000	0.000000	0.000000	0.081723	0.000000	1.000000	0.000000	0.000000
0.175000	0.000000	0.000000	4	0	0	0.000000	0.000000	0.000000	0.100934	0.000000	1.000000	0.000000	0.000000
0.225000	0.000000	0.000000	5	0	0	0.000000	0.000000	0.000000	0.117416	0.000000	1.000000	0.000000	0.000000
0.275000	0.000000	0.000000	6	0	0	0.000000	0.000000	0.000000	0.131791	0.000000	1.000000	0.000000	0.000000
0.325000	0.000000	0.000000	7	0	0	0.000000	0.000000	0.000000	0.144518	0.000000	1.000000	0.000000	0.000000
0.375000	0.000000	0.000000	8	0	0	0.000000	0.000000	0.000000	0.155922	0.000000	1.000000	0.000000	0.000000
0.425000	0.000000	0.000000	9	0	0	0.000000	0.000000	0.000000	0.166279	0.000000	1.000000	0.000000	0.000000
0.475000	0.000000	0.000000	10	0	0	0.000000	0.000000	0.000000	0.175874	0.000000	1.000000	0.000000	0.000000
0.525000	0.000000	0.000000	11	0	0	0.000000	0.000000	0.000000	0.185061	0.000000	1.000000	0.000000	0.000000
0.575000	0.000000	0.000000	12	0	0	0.000000	0.000000	0.000000	0.194321	0.000000	1.000000	0.000000	0.000000
0.625000	0.000000	0.000000	13	0	0	0.000000	0.000000	0.000000	0.204442	0.000000	1.000000	0.000000	0.000000
0.675000	0.000000	0.000000	14	0	0	0.000000	0.000000	0.000000	0.216828	0.000000	1.000000	0.000000	0.000000
0.725000	0.000000	0.000000	15	0	0	0.000000	0.000000	0.000000	0.234057	0.000000	1.000000	0.000000	0.000000
0.775000	0.000000	0.000000	16	0	0	0.000000	0.000000	0.000000	0.260941	0.000000	1.000000	0.000000	0.000000
0.825000	0.000000	0.000000	17	0	0	0.000000	0.000000	0.000000	0.306475	0.000000	1.000000	0.000000	0.000000
0.875000	0.000000	0.000000	18	0	0	0.000000	0.000000	0.000000	0.386639	0.000000	1.000000	0.000000	0.000000
0.925000	0.000000	0.000000	19	0	0	0.000000	0.000000	0.000000	0.525362	0.000000	1.000000	0.000000	0.000000
0.975000	0.000000	0.000000	20	0	0	0.000000	0.000000	0.000000	0.739983	0.000000	1.000000	0.000000	0.000000
1.000000	0.000000	0.000000	21	0	0	0.000000	0.000000	0.000000	0.913328	0.000000	1.000000	0.000000	0.000000
0.000000	0.025000	0.000000	0	1	0	0.000000	0.000000	0.000000	0.000000	0.000000	1.000000	0.000000	0.000000
0.025000	0.025000	0.000000	1	1	0	0.000000	0.000000	0.000000	0.032401	0.000000	1.000000	-0.000004	0.000000
0.075000	0.025000	0.000000	2	1	0	0.000000	0.000000	0.000000	0.059107	0.000000	1.000000	-0.000004	0.000000
0.125000	0.025000	0.000000	3	1	0	0.000000	0.000000	0.000000	0.081757	0.000000	1.000000	-0.000004	0.000000
0.175000	0.025000	0.000000	4	1	0	0.000000	0.000000	0.000000	0.100976	0.000000	1.000000	-0.000004	0.000000
0.225000	0.025000	0.000000	5	1	0	0.000000	0.000000	0.000000	0.117465	0.000000	1.000000	-0.000004	0.000000
0.275000	0.025000	0.000000	6	1	0	0.000000	0.000000	0.000000	0.131847	0.000000	1.000000	-0.000005	0.000000
0.325000	0.025000	0.000000	7	1	0	0.000000	0.000000	0.000000	0.144581	0.000000	1.000000	-0.000005	0.000000
0.375000	0.025000	0.000000	8	1	0	0.000000	0.000000	0.000000	0.155992	0.000000	1.000000	-0.000005	0.000000
0.425000	0.025000	0.000000	9	1	0	0.000000	0.000000	0.000000	0.166356	0.000000	1.000000	-0.000005	0.000000
0.475000	0.025000	0.000000	10	1	0	0.000000	0.000000	0.000000	0.175957	0.000000	1.000000	-0.000005	0.000000
0.525000	0.025000	0.000000	11	1	0	0.000000	0.000000	0.000000	0.185152	0.000000	1.000000	-0.000005	0.000000
0.575000	0.025000	0.000000	12	1	0	0.000000	0.000000	0.000000	0.194418	0.000000	1.000000	-0.000005	0.000000
0.625000	0.025000	0.000000	13	1	0	0.000000	0.000000	0.000000	0.204545	0.000000	1.000000	-0.000005	0.000000
0.675000	0.025000	0.000000	14	1	0	0.000000	0.000000	0.000000	0.216936	0.000000	1.000000	-0.000005	0.000000
0.725000	0.025000	0.000000	15	1	0	0.000000	0.000000	0.000000	0.234169	0.000000	1.000000	-0.000005	0.000000
0.775000	0.025000	0.000000	16	1	0	0.000000	0.000000	0.000000	0.261057	0.000000	1.000000	-0.000006	0.000000
0.825000	0.025000	0.000000	17	1	0	0.000000	0.000000	0.000000	0.306591	0.000000	1.000000	-0.000006	0.000000
0.875000	0.025000	0.000000	18	1	0	0.000000	0.000000	0.000000	0.386751	0.000000	1.000000	-0.000006	0.000000
0.925000	0.025000	0.000000	19	1	0	0.000000	0.000000	0.000000	0.525457	0.000000	1.000000	-0.000006	0.000000
0.975000	0.025000	0.000000	20	1	0	0.000000	0.000000	0.000000	0.740039	0.000000	1.000000	-0.000006	0.000000
1.000000	0.025000	0.000000	21	1	0	0.000000	0.000000	0.000000	1.000000	0.000000	1.000000	0.000000	0.000000
0.000000	0.075000	0.000000	0	2	0	0.000000	0.000000	0.000000	0.000000	0.000000	1.000000	0.000000	0.000000
0.025000	0.075000	0.000000	1	2	0	0.000000	0.000000	0.000000	0.032841	0.000000	1.000000	-0.000004	0.000000
0.075000	0.075000	0.000000	2	2	0	0.000000	0.000000	0.000000	0.059232	0.000000	1.000000	-0.000004	0.000000
0.125000	0.075000	0.000000	3	2	0	0.000000	0.000000	0.000000	0.081435	0.000000	1.000000	-0.000004	0.000000
0.175000	0.075000	0.000000	4	2	0	0.000000	0.000000	0.000000	0.100112	0.000000	1.000000	-0.000004	0.000000
0.225000	0.075000	0.000000	5	2	0	0.000000	0.000000	0.000000	0.116032	0.000000	1.000000	-0.000004	0.000000
0.275000	0.075000	0.000000	6	2	0	0.000000	0.000000	0.000000	0.129887	0.000000	1.000000	-0.000005	0.000000
0.325000	0.075000	0.000000	7	2	0	0.000000	0.000000	0.000000	0.142228	0.000000	1.000000	-0.000005	0.000000
0.375000	0.075000	0.000000	8	2	0	0.000000	0.000000	0.000000	0.153366	0.000000	1.000000	-0.000005	0.000000
0.425000	0.075000	0.000000	9	2	0	0.000000	0.000000	0.000000	0.163535	0.000000	1.000000	-0.000005	0.000000
0.475000	0.075000	0.000000	10	2	0	0.000000	0.000000	0.000000	0.172967	0.000000	1.000000	-0.000005	0.000000
0.525000	0.075000	0.000000	11	2	0	0.000000	0.000000	0.000000	0.181948	0.000000	1.000000	-0.000005	0.000000
0.575000	0.075000	0.000000	12	2	0	0.000000	0.000000	0.000000	0.190889	0.000000	1.000000	-0.000005	0.000000
0.625000	0.075000	0.000000	13	2	0	0.000000	0.000000	0.000000	0.200469	0.000000	1.000000	-0.000005	0.000000
0.675000	0.075000	0.000000	14	2	0	0.000000	0.000000	0.000000	0.211909	0.000000	1.000000	-0.000005	0.000000
0.725000	0.075000	0.000000	15	2	0	0.000000	0.000000	0.000000	0.227491	0.000000	1.000000	-0.000005	0.000000
0.775000	0.075000	0.000000	16	2	0	0.000000	0.000000	0.000000	0.251616	0.000000	1.000000	-0.000006	0.000000
0.825000	0.075000	0.000000	17	2	0	0.000000	0.000000	0.000000	0.292963	0.000000	1.000000	-0.000006	0.000000
0.875000	0.075000	0.000000	18	2	0	0.000000	0.000000	0.000000	0.368127	0.000000	1.000000	-0.000006	0.000000
0.925000	0.075000	0.000000	19	2	0	0.000000	0.000000	0.000000	0.504651	0.000000	1.000000	-0.000006	0.000000
0.975000	0.075000	0.000000	20	2	0	0.000000	0.000000	0.000000	0.726513	0.000000	1.000000	-0.000006	0.000000
1.000000	0.075000	0.000000	21	2	0	0.000000	0.000000	0.000000	1.000000	0.000000	1.000000	0.000000	0.000000
0.000000	0.125000	0.000000	0	3	0	0.000000	0.000000	0.000000	0.000000	0.000000	1.000000	0.000000	0.000000
0.025000	0.125000	0.000000	1	3	0	0.000000	0.000000	0.000000	0.033592	0.000000	1.000000	-0.000004	0.000000
0.075000	0.125000	0.000000	2	3	0	0.000000	0.000000	0.000000	0.060245	0.000000	1.000000	-0.000004	0.000000
0.125000	0.125000	0.000000	3	3	0	0.000000	0.000000	0.000000	0.082379	0.000000	1.000000	-0.000004	0.000000
0.175000	0.125000	0.000000	4	3	0	0.000000	0.000000	0.000000	0.100710	0.000000	1.000000	-0.000004	0.000000
0.225000	0.125000	0.000000	5	3	0	0.000000	0.000000	0.000000	0.116080	0.000000	1.000000	-0.000004	0.000000
0.275000	0.125000	0.000000	6	3	0	0.000000	0.000000	0.000000	0.129258	0.000000	1.000000	-0.000005	0.000000
0.325000	0.125000	0.000000	7	3	0	0.000000	0.000000	0.000000	0.140898	0.000000	1.000000	-0.000005	0.000000
0.375000	0.125000	0.000000	8	3	0	0.000000	0.000000	0.000000	0.151414	0.000000	1.000000	-0.000005	0.000000
0.425000	0.125000	0.000000	9	3	0	0.000000	0.000000	0.000000	0.161044	0.000000	1.000000	-0.000005	0.000000
0.475000	0.125000	0.000000	10	3	0	0.000000	0.000000	0.000000	0.169997	0.000000	1.000000	-0.000005	0.000000
0.525000	0.125000	0.000000	11	3	0	0.000000	0.000000	0.000000	0.178507	0.000000	1.000000	-0.000005	0.000000
0.575000	0.125000	0.000000	12	3	0	0.000000	0.000000	0.000000	0.186914	0.000000	1.000000	-0.000005	0.000000
0.625000	0.125000	0.000000	13	3	0	0.000000	0.000000	0.000000	0.195790	0.000000	1.000000	-0.000005	0.000000
0.675000	0.125000	0.000000	14	3	0	0.000000	0.000000	0.000000	0.206190	0.000000	1.000000	-0.000005	0.000000
0.725000	0.125000	0.000000	15	3	0	0.000000	0.000000	0.000000	0.220154	0.000000	1.000000	-0.000005	0.000000
0.775000	0.125000	0.000000	16	3	0	0.000000	0.000000	0.000000	0.241803	0.000000	1.000000	-0.000006	0.000000
0.825000	0.125000	0.000000	17	3	0	0.000000	0.000000	0.000000	0.279708	0.000000	1.000000	-0.000006	0.000000
0.875000	0.125000	0.000000	18	3	0	0.000000	0.000000	0.000000	0.351182	0.000000	1.000000	-0.000006	0.000000
0.925000	0.125000	0.000000	19	3	0	0.000000	0.000000	0.000000	0.486530	0.000000	1.000000	-0.000006	0.000000
0.975000	0.125000	0.000000	20	3	0	0.000000	0.000000	0.000000	0.714523	0.000000	1.000000	-0.000006	0.000000
1.000000	0.125000	0.000000	21	3	0	0.000000	0.000000	0.000000	1.000000	0.000000	1.000000	0.000000	0.000000
0.000000	0.175000	0.000000	0	4	0	0.000000	0.000000	0.000000	0.000000	0.000000	1.000000	0.000000	0.000000
0.025000	0.175000	0.000000	1	4	0	0.000000	0.000000	0.000000	0.034314	0.000000	1.000000	-0.000004	0.000000
0.075000	0.175000	0.000000	2	4	0	0.000000	0.000000	0.000000	0.061391	0.000000	1.000000	-0.000004	0.000000
0.125000	0.175000	0.000000	3	4	0	0.000000	0.000000	0.000000	0.083655	0.000000	1.000000	-0.000004	0.000000
0.175000	0.175000	0.000000	4	4	0	0.000000	0.000000	0.000000	0.101867	0.000000	1.000000	-0.000004	0.000000
0.225000	0.175000	0.000000	5	4	0	0.000000	0.000000	0.000000	0.116915	0.000000	1.000000	-0.000004	0.000000
0.275000	0.175000	0.000000	6	4	0	0.000000	0.000000	0.000000	0.129618	0.000000	1.000000	-0.000005	0.000000
0.325000	0.175000	0.000000	7	4	0	0.000000	0.000000	0.000000	0.140676	0.000000	1.000000	-0.000005	0.000000
0.375000	0.175000	0.000000	8	4	0	0.000000	0.000000	0.000000	0.150593	0.000000	1.000000	-0.000005	0.000000
0.425000	0.175000	0.000000	9	4	0	0.000000	0.000000	0.000000	0.159637	0.000000	1.000000	-0.000005	0.000000
0.475000	0.175000	0.000000	10	4	0	0.000000	0.000000	0.000000	0.168027	0.000000	1.000000	-0.000005	0.000000
0.525000	0.175000	0.000000	11	4	0	0.000000	0.000000	0.000000	0.175988	0.000000	1.000000	-0.000005	0.000000
0.575000	0.175000	0.000000	12	4	0	0.000000	0.000000	0.000000	0.183824	0.000000	1.000000	-0.000005	0.000000
0.625000	0.175000	0.000000	13	4	0	0.000000	0.000000	0.000000	0.192046	0.000000	1.000000	-0.000005	0.000000
0.675000	0.175000	0.000000	14	4	0	0.000000	0.000000	0.000000	0.201614	0.000000	1.000000	-0.000005	0.000000
0.725000	0.175000	0.000000	15	4	0	0.000000	0.000000	0.000000	0.214426	0.000000	1.000000	-0.000005	0.000000
0.775000	0.175000	0.000000	16	4	0	0.000000	0.000000	0.000000	0.234471	0.000000	1.000000	-0.000005	0.000000
0.825000	0.175000	0.000000	17	4	0	0.000000	0.000000	0.000000	0.270331	0.000000	1.000000	-0.000006	0.000000
0.875000	0.175000	0.000000	18	4	0	0.000000	0.000000	0.000000	0.339836	0.000000	1.000000	-0.000006	0.000000
0.925000	0.175000	0.000000	19	4	0	0.000000	0.000000	0.000000	0.474830	0.000000	1.000000	-0.000006	0.000000
0.975000	0.175000	0.000000	20	4	0	0.000000	0.000000	0.000000	0.706722	0.000000	1.000000	-0.000006	0.000000
1.000000	0.175000	0.000000	21	4	0	0.000000	0.000000	0.000000	1.000000	0.000000	1.000000	0.000000	0.000000
0.000000	0.225000	0.000000	0	5	0	0.000000	0.000000	0.000000	0.000000	0.000000	1.000000	0.000000	0.000000
0.025000	0.225000	0.000000	1	5	0	0.000000	0.000000	0.000000	0.034793	0.000000	1.000000	-0.000004	0.000000
0.075000	0.225000	0.000000	2	5	0	0.000000	0.000000	0.000000	0.062153	0.000000	1.000000	-0.000004	0.000000
0.125000	0.225000	0.000000	3	5	0	0.000000	0.000000	0.000000	0.084518	0.000000	1.000000	-0.000004	0.000000
0.175000	0.225000	0.000000	4	5	0	0.000000	0.000000	0.000000	0.102691	0.000000	1.000000	-0.000004	0.000000
0.225000	0.225000	0.000000	5	5	0	0.000000	0.000000	0.000000	0.117591	0.000000	1.000000	-0.000004	0.000000
0.275000	0.225000	0.000000	6	5	0	0.000000	0.000000	0.000000	0.130050	0.000000	1.000000	-0.000005	0.000000
0.325000	0.225000	0.000000	7	5	0	0.000000	0.000000	0.000000	0.140787	0.000000	1.000000	-0.000005	0.000000
0.375000	0.225000	0.000000	8	5	0	0.000000	0.000000	0.000000	0.150324	0.000000	1.000000	-0.000005	0.000000
0.425000	0.225000	0.000000	9	5	0	0.000000	0.000000	0.000000	0.158950	0.000000	1.000000	-0.000005	0.000000
0.475000	0.225000	0.000000	10	5	0	0.000000	0.000000	0.000000	0.166903	0.000000	1.000000	-0.000005	0.000000
0.525000	0.225000	0.000000	11	5	0	0.000000	0.000000	0.000000	0.174416	0.000000	1.000000	-0.000005	0.000000
0.575000	0.225000	0.000000	12	5	0	0.000000	0.000000	0.000000	0.181788	0.000000	1.000000	-0.000005	0.000000
0.625000	0.225000	0.000000	13	5	0	0.000000	0.000000	0.000000	0.189508	0.000000	1.000000	-0.000005	0.000000
0.675000	0.225000	0.000000	14	5	0	0.000000	0.000000	0.000000	0.198501	0.000000	1.000000	-0.000005	0.000000
0.725000	0.225000	0.000000	15	5	0	0.000000	0.000000	0.000000	0.210600	0.000000	1.000000	-0.000005	0.000000
0.775000	0.225000	0.000000	16	5	0	0.000000	0.000000	0.000000	0.229751	0.000000	1.000000	-0.000005	0.000000
0.825000	0.225000	0.000000	17	5	0	0.000000	0.000000	0.000000	0.264576	0.000000	1.000000	-0.000006	0.000000
0.875000	0.225000	0.000000	18	5	0	0.000000	0.000000	0.000000	0.333192	0.000000	1.000000	-0.000006	0.000000
0.925000	0.225000	0.000000	19	5	0	0.000000	0.000000	0.000000	0.468202	0.000000	1.000000	-0.000006	0.000000
0.975000	0.225000	0.000000	20	5	0	0.000000	0.000000	0.000000	0.702303	0.000000	1.000000	-0.000006	0.000000
1.000000	0.225000	0.000000	21	5	0	0.000000	0.000000	0.000000	1.000000	0.000000	1.000000	0.000000	0.000000
0.000000	0.275000	0.000000	0	6	0	0.000000	0.000000	0.000000	0.000000	0.000000	1.000000	0.000000	0.000000
0.025000	0.275000	0.000000	1	6	0	0.000000	0.000000	0.000000	0.035007	0.000000	1.000000	-0.000004	0.000000
0.075000	0.275000	0.000000	2	6	0	0.000000	0.000000	0.000000	0.062454	0.000000	1.000000	-0.000004	0.000000
0.125000	0.275000	0.000000	3	6	0	0.000000	0.000000	0.000000	0.084823	0.000000	1.000000	-0.000004	0.000000
0.175000	0.275000	0.000000	4	6	0	0.000000	0.000000	0.000000	0.102949	0.000000	1.000000	-0.000004	0.000000
0.225000	0.275000	0.000000	5	6	0	0.000000	0.000000	0.000000	0.117771	0.000000	1.000000	-0.000004	0.000000
0.275000	0.275000	0.000000	6	6	0	0.000000	0.000000	0.000000	0.130128	0.000000	1.000000	-0.000005	0.000000
0.325000	0.275000	0.000000	7	6	0	0.000000	0.000000	0.000000	0.140741	0.000000	1.000000	-0.000005	0.000000
0.375000	0.275000	0.000000	8	6	0	0.000000	0.000000	0.000000	0.150104	0.000000	1.000000	-0.000005	0.000000
0.425000	0.275000	0.000000	9	6	0	0.000000	0.000000	0.000000	0.158513	0.000000	1.000000	-0.000005	0.000000
0.475000	0.275000	0.000000	10	6	0	0.000000	0.000000	0.000000	0.166211	0.000000	1.000000	-0.000005	0.000000
0.525000	0.275000	0.000000	11	6	0	0.000000	0.000000	0.000000	0.173443	0.000000	1.000000	-0.000005	0.000000
0.575000	0.275000	0.000000	12	6	0	0.000000	0.000000	0.000000	0.180513	0.000000	1.000000	-0.000005	0.000000
0.625000	0.275000	0.000000	13	6	0	0.000000	0.000000	0.000000	0.187912	0.000000	1.000000	-0.000005	0.000000
0.675000	0.275000	0.000000	14	6	0	0.000000	0.000000	0.000000	0.196556	0.000000	1.000000	-0.000005	0.000000
0.725000	0.275000	0.000000	15	6	0	0.000000	0.000000	0.000000	0.208262	0.000000	1.000000	-0.000005	0.000000
0.775000	0.275000	0.000000	16	6	0	0.000000	0.000000	0.000000	0.226973	0.000000	1.000000	-0.000005	0.000000
0.825000	0.275000	0.000000	17	6	0	0.000000	0.000000	0.000000	0.261350	0.000000	1.000000	-0.000006	0.000000
0.875000	0.275000	0.000000	18	6	0	0.000000	0.000000	0.000000	0.329653	0.000000	1.000000	-0.000006	0.000000
0.925000	0.275000	0.000000	19	6	0	0.000000	0.000000	0.000000	0.464808	0.000000	1.000000	-0.000006	0.000000
0.975000	0.275000	0.000000	20	6	0	0.000000	0.000000	0.000000	0.700060	0.000000	1.000000	-0.000006	0.000000
1.000000	0.275000	0.000000	21	6	0	0.000000	0.000000	0.000000	1.000000	0.000000	1.000000	0.000000	0.000000
0.000000	0.325000	0.000000	0	7	0	0.000000	0.000000	0.000000	0.000000	0.000000	1.000000	0.000000	0.000000
0.025000	0.325000	0.000000	1	7	0	0.000000	0.000000	0.000000	0.035039	0.000000	1.000000	-0.000004	0.000000
0.075000	0.325000	0.000000	2	7	0	0.000000	0.000000	0.000000	0.062443	0.000000	1.000000	-0.000004	0.000000
0.125000	0.325000	0.000000	3	7	0	0.000000	0.000000	0.000000	0.084741	0.000000	1.000000	-0.000004	0.000000
0.175000	0.325000	0.000000	4	7	0	0.000000	0.000000	0.000000	0.102795	0.000000	1.000000	-0.000004	0.000000
0.225000	0.325000	0.000000	5	7	0	0.000000	0.000000	0.000000	0.117557	0.000000	1.000000	-0.000004	0.000000
0.275000	0.325000	0.000000	6	7	0	0.000000	0.000000	0.000000	0.129869	0.000000	1.000000	-0.000005	0.000000
0.325000	0.325000	0.000000	7	7	0	0.000000	0.000000	0.000000	0.140453	0.000000	1.000000	-0.000005	0.000000
0.375000	0.325000	0.000000	8	7	0	0.000000	0.000000	0.000000	0.149764	0.000000	1.000000	-0.000005	0.000000
0.425000	0.325000	0.000000	9	7	0	0.000000	0.000000	0.000000	0.158092	0.000000	1.000000	-0.000005	0.000000
0.475000	0.325000	0.000000	10	7	0	0.000000	0.000000	0.000000	0.165681	0.000000	1.000000	-0.000005	0.000000
0.525000	0.325000	0.000000	11	7	0	0.000000	0.000000	0.000000	0.172778	0.000000	1.000000	-0.000005	0.000000
0.575000	0.325000	0.000000	12	7	0	0.000000	0.000000	0.000000	0.179692	0.000000	1.000000	-0.000005	0.000000
0.625000	0.325000	0.000000	13	7	0	0.000000	0.000000	0.000000	0.186919	0.000000	1.000000	-0.000005	0.000000
0.675000	0.325000	0.000000	14	7	0	0.000000	0.000000	0.000000	0.195384	0.000000	1.000000	-0.000005	0.000000
0.725000	0.325000	0.000000	15	7	0	0.000000	0.000000	0.000000	0.206905	0.000000	1.000000	-0.000005	0.000000
0.775000	0.325000	0.000000	16	7	0	0.000000	0.000000	0.000000	0.225439	0.000000	1.000000	-0.000005	0.000000
0.825000	0.325000	0.000000	17	7	0	0.000000	0.000000	0.000000	0.259677	0.000000	1.000000	-0.000006	0.000000
0.875000	0.325000	0.000000	18	7	0	0.000000	0.000000	0.000000	0.327946	0.000000	1.000000	-0.000006	0.000000
0.925000	0.325000	0.000000	19	7	0	0.000000	0.000000	0.000000	0.463272	0.000000	1.000000	-0.000006	0.000000
0.975000	0.325000	0.000000	20	7	0	0.000000	0.000000	0.000000	0.699069	0.000000	1.000000	-0.000006	0.000000
1.000000	0.325000	0.000000	21	7	0	0.000000	0.000000	0.000000	1.000000	0.000000	1.000000	0.000000	0.000000
0.000000	0.375000	0.000000	0	8	0	0.000000	0.000000	0.000000	0.000000	0.000000	1.000000	0.000000	0.000000
0.025000	0.375000	0.000000	1	8	0	0.000000	0.000000	0.000000	0.034983	0.000000	1.000000	-0.000004	0.000000
0.075000	0.375000	0.000000	2	8	0	0.000000	0.000000	0.000000	0.062297	0.000000	1.000000	-0.000004	0.000000
0.125000	0.375000	0.000000	3	8	0	0.000000	0.000000	0.000000	0.084499	0.000000	1.000000	-0.000004	0.000000
0.175000	0.375000	0.000000	4	8	0	0.000000	0.000000	0.000000	0.102471	0.000000	1.000000	-0.000004	0.000000
0.225000	0.375000	0.000000	5	8	0	0.000000	0.000000	0.000000	0.117177	0.000000	1.000000	-0.000004	0.000000
0.275000	0.375000	0.000000	6	8	0	0.000000	0.000000	0.000000	0.129461	0.000000	1.000000	-0.000005	0.000000
0.325000	0.375000	0.000000	7	8	0	0.000000	0.000000	0.000000	0.140044	0.000000	1.000000	-0.000005	0.000000
0.375000	0.375000	0.000000	8	8	0	0.000000	0.000000	0.000000	0.149352	0.000000	1.000000	-0.000005	0.000000
0.425000	0.375000	0.000000	9	8	0	0.000000	0.000000	0.000000	0.157668	0.000000	1.000000	-0.000005	0.000000
0.475000	0.375000	0.000000	10	8	0	0.000000	0.000000	0.000000	0.165230	0.000000	1.000000	-0.000005	0.000000
0.525000	0.375000	0.000000	11	8	0	0.000000	0.000000	0.000000	0.172283	0.000000	1.000000	-0.000005	0.000000
0.575000	0.375000	0.000000	12	8	0	0.000000	0.000000	0.000000	0.179138	0.000000	1.000000	-0.000005	0.000000
0.625000	0.375000	0.000000	13	8	0	0.000000	0.000000	0.000000	0.186296	0.000000	1.000000	-0.000005	0.000000
0.675000	0.375000	0.000000	14	8	0	0.000000	0.000000	0.000000	0.194688	0.000000	1.000000	-0.000005	0.000000
0.725000	0.375000	0.000000	15	8	0	0.000000	0.000000	0.000000	0.206144	0.000000	1.000000	-0.000005	0.000000
0.775000	0.375000	0.000000	16	8	0	0.000000	0.000000	0.000000	0.224636	0.000000	1.000000	-0.000005	0.000000
0.825000	0.375000	0.000000	17	8	0	0.000000	0.000000	0.000000	0.258880	0.000000	1.000000	-0.000006	0.000000
0.875000	0.375000	0.000000	18	8	0	0.000000	0.000000	0.000000	0.327224	0.000000	1.000000	-0.000006	0.000000
0.925000	0.375000	0.000000	19	8	0	0.000000	0.000000	0.000000	0.462702	0.000000	1.000000	-0.000006	0.000000
0.975000	0.375000	0.000000	20	8	0	0.000000	0.000000	0.000000	0.698725	0.000000	1.000000	-0.000006	0.000000
1.000000	0.375000	0.000000	21	8	0	0.000000	0.000000	0.000000	1.000000	0.000000	1.000000	0.000000	0.000000
0.000000	0.425000	0.000000	0	9	0	0.000000	0.000000	0.000000	0.000000	0.000000	1.000000	0.000000	0.000000
0.025000	0.425000	0.000000	1	9	0	0.000000	0.000000	0.000000	0.034914	0.000000	1.000000	-0.000004	0.000000
0.075000	0.425000	0.000000	2	9	0	0.000000	0.000000	0.000000	0.062144	0.000000	1.000000	-0.000004	0.000000
0.125000	0.425000	0.000000	3	9	0	0.000000	0.000000	0.000000	0.084265	0.000000	1.000000	-0.000004	0.000000
0.175000	0.425000	0.000000	4	9	0	0.000000	0.000000	0.000000	0.102170	0.000000	1.000000	-0.000004	0.000000
0.225000	0.425000	0.000000	5	9	0	0.000000	0.000000	0.000000	0.116828	0.000000	1.000000	-0.000004	0.000000
0.275000	0.425000	0.000000	6	9	0	0.000000	0.000000	0.000000	0.129090	0.000000	1.000000	-0.000005	0.000000
0.325000	0.425000	0.000000	7	9	0	0.000000	0.000000	0.000000	0.139675	0.000000	1.000000	-0.000005	0.000000
0.375000	0.425000	0.000000	8	9	0	0.000000	0.000000	0.000000	0.148992	0.000000	1.000000	-0.000005	0.000000
0.425000	0.425000	0.000000	9	9	0	0.000000	0.000000	0.000000	0.157317	0.000000	1.000000	-0.000005	0.000000
0.475000	0.425000	0.000000	10	9	0	0.000000	0.000000	0.000000	0.164884	0.000000	1.000000	-0.000005	0.000000
0.525000	0.425000	0.000000	11	9	0	0.000000	0.000000	0.000000	0.171934	0.000000	1.000000	-0.000005	0.000000
0.575000	0.425000	0.000000	12	9	0	0.000000	0.000000	0.000000	0.178777	0.000000	1.000000	-0.000005	0.000000
0.625000	0.425000	0.000000	13	9	0	0.000000	0.000000	0.000000	0.185918	0.000000	1.000000	-0.000005	0.000000
0.675000	0.425000	0.000000	14	9	0	0.000000	0.000000	0.000000	0.194293	0.000000	1.000000	-0.000005	0.000000
0.725000	0.425000	0.000000	15	9	0	0.000000	0.000000	0.000000	0.205739	0.000000	1.000000	-0.000005	0.000000
0.775000	0.425000	0.000000	16	9	0	0.000000	0.000000	0.000000	0.224244	0.000000	1.000000	-0.000005	0.000000
0.825000	0.425000	0.000000	17	9	0	0.000000	0.000000	0.000000	0.258537	0.000000	1.000000	-0.000005	0.000000
0.875000	0.425000	0.000000	18	9	0	0.000000	0.000000	0.000000	0.326973	0.000000	1.000000	-0.000006	0.000000
0.925000	0.425000	0.000000	19	9	0	0.000000	0.000000	0.000000	0.462563	0.000000	1.000000	-0.000006	0.000000
0.975000	0.425000	0.000000	20	9	0	0.000000	0.000000	0.000000	0.698660	0.000000	1.000000	-0.000006	0.000000
1.000000	0.425000	0.000000	21	9	0	0.000000	0.000000	0.000000	1.000000	0.000000	1.000000	0.000000	0.000000
0.000000	0.475000	0.000000	0	10	0	0.000000	0.000000	0.000000	0.000000	0.000000	1.000000	0.000000	0.000000
0.025000	0.475000	0.000000	1	10	0	0.000000	0.000000	0.000000	0.034871	0.000000	1.000000	-0.000004	0.000000
0.075000	0.475000	0.000000	2	10	0	0.000000	0.000000	0.000000	0.062054	0.000000	1.000000	-0.000004	0.000000
0.125000	0.475000	0.000000	3	10	0	0.000000	0.000000	0.000000	0.084130	0.000000	1.000000	-0.000004	0.000000
0.175000	0.475000	0.000000	4	10	0	0.000000	0.000000	0.000000	0.101997	0.000000	1.000000	-0.000004	0.000000
0.225000	0.475000	0.000000	5	10	0	0.000000	0.000000	0.000000	0.116629	0.000000	1.000000	-0.000004	0.000000
0.275000	0.475000	0.000000	6	10	0	0.000000	0.000000	0.000000	0.128877	0.000000	1.000000	-0.000005	0.000000
0.325000	0.475000	0.000000	7	10	0	0.000000	0.000000	0.000000	0.139462	0.000000	1.000000	-0.000005	0.000000
0.375000	0.475000	0.000000	8	10	0	0.000000	0.000000	0.000000	0.148785	0.000000	1.000000	-0.000005	0.000000
0.425000	0.475000	0.000000	9	10	0	0.000000	0.000000	0.000000	0.157118	0.000000	1.000000	-0.000005	0.000000
0.475000	0.475000	0.000000	10	10	0	0.000000	0.000000	0.000000	0.164694	0.000000	1.000000	-0.000005	0.000000
0.525000	0.475000	0.000000	11	10	0	0.000000	0.000000	0.000000	0.171749	0.000000	1.000000	-0.000005	0.000000
0.575000	0.475000	0.000000	12	10	0	0.000000	0.000000	0.000000	0.178596	0.000000	1.000000	-0.000005	0.000000
0.625000	0.475000	0.000000	13	10	0	0.000000	0.000000	0.000000	0.185737	0.000000	1.000000	-0.000005	0.000000
0.675000	0.475000	0.000000	14	10	0	0.000000	0.000000	0.000000	0.194112	0.000000	1.000000	-0.000005	0.000000
0.725000	0.475000	0.000000	15	10	0	0.000000	0.000000	0.000000	0.205564	0.000000	1.000000	-0.000005	0.000000
0.775000	0.475000	0.000000	16	10	0	0.000000	0.000000	0.000000	0.224086	0.000000	1.000000	-0.000005	0.000000
0.825000	0.475000	0.000000	17	10	0	0.000000	0.000000	0.000000	0.258416	0.000000	1.000000	-0.000005	0.000000
0.875000	0.475000	0.000000	18	10	0	0.000000	0.000000	0.000000	0.326910	0.000000	1.000000	-0.000006	0.000000
0.925000	0.475000	0.000000	19	10	0	0.000000	0.000000	0.000000	0.462558	0.000000	1.000000	-0.000006	0.000000
0.975000	0.475000	0.000000	20	10	0	0.000000	0.000000	0.000000	0.698673	0.000000	1.000000	-0.000006	0.000000
1.000000	0.475000	0.000000	21	10	0	0.000000	0.000000	0.000000	1.000000	0.000000	1.000000	0.000000	0.000000
0.000000	0.525000	0.000000	0	11	0	0.000000	0.000000	0.000000	0.000000	0.000000	1.000000	0.000000	0.000000
0.025000	0.525000	0.000000	1	11	0	0.000000	0.000000	0.000000	0.034871	0.000000	1.000000	-0.000004	0.000000
0.075000	0.525000	0.000000	2	11	0	0.000000	0.000000	0.000000	0.062054	0.000000	1.000000	-0.000004	0.000000
0.125000	0.525000	0.000000	3	11	0	0.000000	0.000000	0.000000	0.084130	0.000000	1.000000	-0.000004	0.000000
0.175000	0.525000	0.000000	4	11	0	0.000000	0.000000	0.000000	0.101997	0.000000	1.000000	-0.000004	0.000000
0.225000	0.525000	0.000000	5	11	0	0.000000	0.000000	0.000000	0.116629	0.000000	1.000000	-0.000004	0.000000
0.275000	0.525000	0.000000	6	11	0	0.000000	0.000000	0.000000	0.128877	0.000000	1.000000	-0.000005	0.000000
0.325000	0.525000	0.000000	7	11	0	0.000000	0.000000	0.000000	0.139462	0.000000	1.000000	-0.000005	0.000000
0.375000	0.525000	0.000000	8	11	0	0.000000	0.000000	0.000000	0.148785	0.000000	1.000000	-0.000005	0.000000
0.425000	0.525000	0.000000	9	11	0	0.000000	0.000000	0.000000	0.157118	0.000000	1.000000	-0.000005	0.000000
0.475000	0.525000	0.000000	10	11	0	0.000000	0.000000	0.000000	0.164694	0.000000	1.000000	-0.000005	0.000000
0.525000	0.525000	0.000000	11	11	0	0.000000	0.000000	0.000000	0.171749	0.000000	1.000000	-0.000005	0.000000
0.575000	0.525000	0.000000	12	11	0	0.000000	0.000000	0.000000	0.178596	0.000000	1.000000	-0.000005	0.000000
0.625000	0.525000	0.000000	13	11	0	0.000000	0.000000	0.000000	0.185737	0.000000	1.000000	-0.000005	0.000000
0.675000	0.525000	0.000000	14	11	0	0.000000	0.000000	0.000000	0.194112	0.000000	1.000000	-0.000005	0.000000
0.725000	0.525000	0.000000	15	11	0	0.000000	0.000000	0.000000	0.205564	0.000000	1.000000	-0.000005	0.000000
0.775000	0.525000	0.000000	16	11	0	0.000000	0.000000	0.000000	0.224086	0.000000	1.000000	-0.000005	0.000000
0.825000	0.525000	0.000000	17	11	0	0.000000	0.000000	0.000000	0.258416	0.000000	1.000000	-0.000005	0.000000
0.875000	0.525000	0.000000	18	11	0	0.000000	0.000000	0.000000	0.326910	0.000000	1.000000	-0.000006	0.000000
0.925000	0.525000	0.000000	19	11	0	0.000000	0.000000	0.000000	0.462558	0.000000	1.000000	-0.000006	0.000000
0.975000	0.525000	0.000000	20	11	0	0.000000	0.000000	0.000000	0.698673	0.000000	1.000000	-0.000006	0.000000
1.000000	0.525000	0.000000	21	11	0	0.000000	0.000000	0.000000	1.000000	0.000000	1.000000	0.000000	0.000000
0.000000	0.575000	0.000000	0	12	0	0.000000	0.000000	0.000000	0.000000	0.000000	1.000000	0.000000	0.000000
0.025000	0.575000	0.000000	1	12	0	0.000000	0.000000	0.000000	0.034914	0.000000	1.000000	-0.000004	0.000000
0.075000	0.575000	0.000000	2	12	0	0.000000	0.000000	0.000000	0.062144	0.000000	1.000000	-0.000004	0.000000
0.125000	0.575000	0.000000	3	12	0	0.000000	0.000000	0.000000	0.084265	0.000000	1.000000	-0.000004	0.000000
0.175000	0.575000	0.000000	4	12	0	0.000000	0.000000	0.000000	0.102170	0.000000	1.000000	-0.000004	0.000000
0.225000	0.575000	0.000000	5	12	0	0.000000	0.000000	0.000000	0.116828	0.000000	1.000000	-0.000004	0.000000
0.275000	0.575000	0.000000	6	12	0	0.000000	0.000000	0.000000	0.129090	0.000000	1.000000	-0.000005	0.000000
0.325000	0.575000	0.000000	7	12	0	0.000000	0.000000	0.000000	0.139675	0.000000	1.000000	-0.000005	0.000000
0.375000	0.575000	0.000000	8	12	0	0.000000	0.000000	0.000000	0.148992	0.000000	1.000000	-0.000005	0.000000
0.425000	0.575000	0.000000	9	12	0	0.000000	0.000000	0.000000	0.157317	0.000000	1.000000	-0.000005	0.000000
0.475000	0.575000	0.000000	10	12	0	0.000000	0.000000	0.000000	0.164884	0.000000	1.000000	-0.000005	0.000000
0.525000	0.575000	0.000000	11	12	0	0.000000	0.000000	0.000000	0.171934	0.000000	1.000000	-0.000005	0.000000
0.575000	0.575000	0.000000	12	12	0	0.000000	0.000000	0.000000	0.178777	0.000000	1.000000	-0.000005	0.000000
0.625000	0.575000	0.000000	13	12	0	0.000000	0.000000	0.000000	0.185919	0.000000	1.000000	-0.000005	0.000000
0.675000	0.575000	0.000000	14	12	0	0.000000	0.000000	0.000000	0.194293	0.000000	1.000000	-0.000005	0.000000