TITLE = "dt=0.100000s, t=200.000000s, nu=0.000015, Lx=1.000000, Ly=1.000000, Lz=1.000000, Nx=22, Ny=22, Nz=22 "
VARIABLES =X, Y, Z, I, J, K, U, V, W, T, Xi, FlagP, P, Vel 
ZONE F=POINT, I=22, J=22, K=22
0.000000	0.000000	0.000000	0	0	0	0.000000	0.000000	0.000000	10.000000	0.000000	1.000000	0.000000	0.000000
0.002500	0.000000	0.000000	1	0	0	0.000000	0.000000	0.000000	10.000000	0.000000	1.000000	0.000000	0.000000
0.012500	0.000000	0.000000	2	0	0	0.000000	0.000000	0.000000	10.000000	0.000000	1.000000	0.000000	0.000000
0.032500	0.000000	0.000000	3	0	0	0.000000	0.000000	0.000000	10.000000	0.000000	1.000000	0.000000	0.000000
0.062500	0.000000	0.000000	4	0	0	0.000000	0.000000	0.000000	10.000000	0.000000	1.000000	0.000000	0.000000
0.102500	0.000000	0.000000	5	0	0	0.000000	0.000000	0.000000	10.000000	0.000000	1.000000	0.000000	0.000000
0.152500	0.000000	0.000000	6	0	0	0.000000	0.000000	0.000000	10.000000	0.000000	1.000000	0.000000	0.000000
0.212500	0.000000	0.000000	7	0	0	0.000000	0.000000	0.000000	10.000000	0.000000	1.000000	0.000000	0.000000
0.282500	0.000000	0.000000	8	0	0	0.000000	0.000000	0.000000	10.000000	0.000000	1.000000	0.000000	0.000000
0.362500	0.000000	0.000000	9	0	0	0.000000	0.000000	0.000000	10.000000	0.000000	1.000000	0.000000	0.000000
0.452500	0.000000	0.000000	10	0	0	0.000000	0.000000	0.000000	10.000000	0.000000	1.000000	0.000000	0.000000
0.547500	0.000000	0.000000	11	0	0	0.000000	0.000000	0.000000	10.000000	0.000000	1.000000	0.000000	0.000000
0.637500	0.000000	0.000000	12	0	0	0.000000	0.000000	0.000000	10.000000	0.000000	1.000000	0.000000	0.000000
0.717500	0.000000	0.000000	13	0	0	0.000000	0.000000	0.000000	10.000000	0.000000	1.000000	0.000000	0.000000
0.787500	0.000000	0.000000	14	0	0	0.000000	0.000000	0.000000	10.000000	0.000000	1.000000	0.000000	0.000000
0.847500	0.000000	0.000000	15	0	0	0.000000	0.000000	0.000000	10.000000	0.000000	1.000000	0.000000	0.000000
0.897500	0.000000	0.000000	16	0	0	0.000000	0.000000	0.000000	10.000000	0.000000	1.000000	0.000000	0.000000
0.937500	0.000000	0.000000	17	0	0	0.000000	0.000000	0.000000	10.000000	0.000000	1.000000	0.000000	0.000000
0.967500	0.000000	0.000000	18	0	0	0.000000	0.000000	0.000000	10.000000	0.000000	1.000000	0.000000	0.000000
0.987500	0.000000	0.000000	19	0	0	0.000000	0.000000	0.000000	10.000000	0.000000	1.000000	0.000000	0.000000
0.997500	0.000000	0.000000	20	0	0	0.000000	0.000000	0.000000	10.000000	0.000000	1.000000	0.000000	0.000000
1.000000	0.000000	0.000000	21	0	0	0.000000	0.000000	0.000000	16.666667	0.000000	1.000000	0.000000	0.000000
0.000000	0.002500	0.000000	0	1	0	0.000000	0.000000	0.000000	10.000000	0.000000	1.000000	0.000000	0.000000
0.002500	0.002500	0.000000	1	1	0	0.000000	0.000000	0.000000	30.000000	0.080201	1.000000	51.376006	0.000000
0.012500	0.002500	0.000000	2	1	0	0.000000	0.000000	0.000000	30.000000	0.000000	1.000000	51.376134	0.000000
0.032500	0.002500	0.000000	3	1	0	0.000000	0.000000	0.000000	30.000000	0.000000	1.000000	51.375803	0.000000
0.062500	0.002500	0.000000	4	1	0	0.000000	0.000000	0.000000	30.000000	0.000000	1.000000	51.374084	0.000000
0.102500	0.002500	0.000000	5	1	0	0.000000	0.000000	0.000000	30.000000	0.000000	1.000000	51.372205	0.000000
0.152500	0.002500	0.000000	6	1	0	0.000000	0.000000	0.000000	30.000000	0.000000	1.000000	51.364228	0.000000
0.212500	0.002500	0.000000	7	1	0	0.000000	0.000000	0.000000	30.000000	0.000000	1.000000	51.358705	0.000000
0.282500	0.002500	0.000000	8	1	0	0.000000	0.000000	0.000000	30.000000	0.000000	1.000000	51.354165	0.000000
0.362500	0.002500	0.000000	9	1	0	0.000000	0.000000	0.000000	30.000000	0.000000	1.000000	51.346390	0.000000
0.452500	0.002500	0.000000	10	1	0	0.000000	0.000000	0.000000	30.000000	0.000000	1.000000	51.343678	0.000000
0.547500	0.002500	0.000000	11	1	0	0.000000	0.000000	0.000000	30.000000	0.000000	1.000000	51.350640	0.000000
0.637500	0.002500	0.000000	12	1	0	0.000000	0.000000	0.000000	30.000000	0.000000	1.000000	51.366630	0.000000
0.717500	0.002500	0.000000	13	1	0	0.000000	0.000000	0.000000	30.000000	0.000000	1.000000	51.389652	0.000000
0.787500	0.002500	0.000000	14	1	0	0.000000	0.000000	0.000000	30.000000	0.000000	1.000000	51.416756	0.000000
0.847500	0.002500	0.000000	15	1	0	0.000000	0.000000	0.000000	30.000000	0.000000	1.000000	51.441824	0.000000
0.897500	0.002500	0.000000	16	1	0	0.000000	0.000000	0.000000	30.000000	0.000000	1.000000	51.457678	0.000000
0.937500	0.002500	0.000000	17	1	0	0.000000	0.000000	0.000000	30.000000	0.000000	1.000000	51.460623	0.000000
0.967500	0.002500	0.000000	18	1	0	0.000000	0.000000	0.000000	30.000000	0.000000	1.000000	51.454989	0.000000
0.987500	0.002500	0.000000	19	1	0	0.000000	0.000000	0.000000	30.000000	0.000000	1.000000	51.451157	0.000000
0.997500	0.002500	0.000000	20	1	0	0.000000	0.000000	0.000000	30.000000	0.000000	1.000000	51.451466	0.000000
1.000000	0.002500	0.000000	21	1	0	0.000000	0.000000	0.000000	30.000000	0.000000	1.000000	0.000000	0.000000
0.000000	0.012500	0.000000	0	2	0	0.000000	0.000000	0.000000	10.000000	0.000000	1.000000	0.000000	0.000000
0.002500	0.012500	0.000000	1	2	0	0.000000	0.000000	0.000000	30.000000	0.093445	1.000000	51.375929	0.000000
0.012500	0.012500	0.000000	2	2	0	0.000000	0.000000	0.000000	30.000000	0.000000	1.000000	51.375966	0.000000
0.032500	0.012500	0.000000	3	2	0	0.000000	0.000000	0.000000	30.000000	0.000000	1.000000	51.375618	0.000000
0.062500	0.012500	0.000000	4	2	0	0.000000	0.000000	0.000000	30.000000	0.000000	1.000000	51.373930	0.000000
0.102500	0.012500	0.000000	5	2	0	0.000000	0.000000	0.000000	30.000000	0.000000	1.000000	51.372134	0.000000
0.152500	0.012500	0.000000	6	2	0	0.000000	0.000000	0.000000	30.000000	0.000000	1.000000	51.363988	0.000000
0.212500	0.012500	0.000000	7	2	0	0.000000	0.000000	0.000000	30.000000	0.000000	1.000000	51.358540	0.000000
0.282500	0.012500	0.000000	8	2	0	0.000000	0.000000	0.000000	30.000000	0.000000	1.000000	51.354181	0.000000
0.362500	0.012500	0.000000	9	2	0	0.000000	0.000000	0.000000	30.000000	0.000000	1.000000	51.346476	0.000000
0.452500	0.012500	0.000000	10	2	0	0.000000	0.000000	0.000000	30.000000	0.000000	1.000000	51.343649	0.000000
0.547500	0.012500	0.000000	11	2	0	0.000000	0.000000	0.000000	30.000000	0.000000	1.000000	51.350534	0.000000
0.637500	0.012500	0.000000	12	2	0	0.000000	0.000000	0.000000	30.000000	0.000000	1.000000	51.366439	0.000000
0.717500	0.012500	0.000000	13	2	0	0.000000	0.000000	0.000000	30.000000	0.000000	1.000000	51.389354	0.000000
0.787500	0.012500	0.000000	14	2	0	0.000000	0.000000	0.000000	30.000000	0.000000	1.000000	51.416313	0.000000
0.847500	0.012500	0.000000	15	2	0	0.000000	0.000000	0.000000	30.000000	0.000000	1.000000	51.441185	0.000000
0.897500	0.012500	0.000000	16	2	0	0.000000	0.000000	0.000000	30.000000	0.000000	1.000000	51.456819	0.000000
0.937500	0.012500	0.000000	17	2	0	0.000000	0.000000	0.000000	30.000000	0.000000	1.000000	51.459523	0.000000
0.967500	0.012500	0.000000	18	2	0	0.000000	0.000000	0.000000	30.000000	0.000000	1.000000	51.453715	0.000000
0.987500	0.012500	0.000000	19	2	0	0.000000	0.000000	0.000000	30.000000	0.000000	1.000000	51.449651	0.000000
0.997500	0.012500	0.000000	20	2	0	0.000000	0.000000	0.000000	30.000000	0.000000	1.000000	51.449917	0.000000
1.000000	0.012500	0.000000	21	2	0	0.000000	0.000000	0.000000	30.000000	0.000000	1.000000	0.000000	0.000000
0.000000	0.032500	0.000000	0	3	0	0.000000	0.000000	0.000000	10.000000	0.000000	1.000000	0.000000	0.000000
0.002500	0.032500	0.000000	1	3	0	0.000000	0.000000	0.000000	30.000000	0.095388	1.000000	51.375232	0.000000
0.012500	0.032500	0.000000	2	3	0	0.000000	0.000000	0.000000	30.000000	0.000000	1.000000	51.375247	0.000000
0.032500	0.032500	0.000000	3	3	0	0.000000	0.000000	0.000000	30.000000	0.000000	1.000000	51.374892	0.000000
0.062500	0.032500	0.000000	4	3	0	0.000000	0.000000	0.000000	30.000000	0.000000	1.000000	51.373541	0.000000
0.102500	0.032500	0.000000	5	3	0	0.000000	0.000000	0.000000	30.000000	0.000000	1.000000	51.373367	0.000000
0.152500	0.032500	0.000000	6	3	0	0.000000	0.000000	0.000000	30.000000	0.000000	1.000000	51.362871	0.000000
0.212500	0.032500	0.000000	7	3	0	0.000000	0.000000	0.000000	30.000000	0.000000	1.000000	51.358432	0.000000
0.282500	0.032500	0.000000	8	3	0	0.000000	0.000000	0.000000	30.000000	0.000000	1.000000	51.354716	0.000000
0.362500	0.032500	0.000000	9	3	0	0.000000	0.000000	0.000000	30.000000	0.000000	1.000000	51.346660	0.000000
0.452500	0.032500	0.000000	10	3	0	0.000000	0.000000	0.000000	30.000000	0.000000	1.000000	51.343664	0.000000
0.547500	0.032500	0.000000	11	3	0	0.000000	0.000000	0.000000	30.000000	0.000000	1.000000	51.350513	0.000000
0.637500	0.032500	0.000000	12	3	0	0.000000	0.000000	0.000000	30.000000	0.000000	1.000000	51.366308	0.000000
0.717500	0.032500	0.000000	13	3	0	0.000000	0.000000	0.000000	30.000000	0.000000	1.000000	51.389101	0.000000
0.787500	0.032500	0.000000	14	3	0	0.000000	0.000000	0.000000	30.000000	0.000000	1.000000	51.416004	0.000000
0.847500	0.032500	0.000000	15	3	0	0.000000	0.000000	0.000000	30.000000	0.000000	1.000000	51.440918	0.000000
0.897500	0.032500	0.000000	16	3	0	0.000000	0.000000	0.000000	30.000000	0.000000	1.000000	51.456683	0.000000
0.937500	0.032500	0.000000	17	3	0	0.000000	0.000000	0.000000	30.000000	0.000000	1.000000	51.458936	0.000000
0.967500	0.032500	0.000000	18	3	0	0.000000	0.000000	0.000000	30.000000	0.000000	1.000000	51.450130	0.000000
0.987500	0.032500	0.000000	19	3	0	0.000000	0.000000	0.000000	30.000000	0.000000	1.000000	51.441880	0.000000
0.997500	0.032500	0.000000	20	3	0	0.000000	0.000000	0.000000	30.000000	0.000000	1.000000	51.442128	0.000000
1.000000	0.032500	0.000000	21	3	0	0.000000	0.000000	0.000000	30.000000	0.000000	1.000000	0.000000	0.000000
0.000000	0.062500	0.000000	0	4	0	0.000000	0.000000	0.000000	10.000000	0.000000	1.000000	0.000000	0.000000
0.002500	0.062500	0.000000	1	4	0	0.000000	0.000000	0.000000	30.000000	0.094889	1.000000	51.374616	0.000000
0.012500	0.062500	0.000000	2	4	0	0.000000	0.000000	0.000000	30.000000	0.000000	1.000000	51.374652	0.000000
0.032500	0.062500	0.000000	3	4	0	0.000000	0.000000	0.000000	30.000000	0.000000	1.000000	51.373971	0.000000
0.062500	0.062500	0.000000	4	4	0	0.000000	0.000000	0.000000	30.000000	0.000000	1.000000	51.372296	0.000000
0.102500	0.062500	0.000000	5	4	0	0.000000	0.000000	0.000000	30.000000	0.000000	1.000000	51.371448	0.000000
0.152500	0.062500	0.000000	6	4	0	0.000000	0.000000	0.000000	30.000000	0.000000	1.000000	51.361685	0.000000
0.212500	0.062500	0.000000	7	4	0	0.000000	0.000000	0.000000	30.000000	0.000000	1.000000	51.357305	0.000000
0.282500	0.062500	0.000000	8	4	0	0.000000	0.000000	0.000000	30.000000	0.000000	1.000000	51.355697	0.000000
0.362500	0.062500	0.000000	9	4	0	0.000000	0.000000	0.000000	30.000000	0.000000	1.000000	51.347051	0.000000
0.452500	0.062500	0.000000	10	4	0	0.000000	0.000000	0.000000	30.000000	0.000000	1.000000	51.343432	0.000000
0.547500	0.062500	0.000000	11	4	0	0.000000	0.000000	0.000000	30.000000	0.000000	1.000000	51.350208	0.000000
0.637500	0.062500	0.000000	12	4	0	0.000000	0.000000	0.000000	30.000000	0.000000	1.000000	51.365999	0.000000
0.717500	0.062500	0.000000	13	4	0	0.000000	0.000000	0.000000	30.000000	0.000000	1.000000	51.388987	0.000000
0.787500	0.062500	0.000000	14	4	0	0.000000	0.000000	0.000000	30.000000	0.000000	1.000000	51.416564	0.000000
0.847500	0.062500	0.000000	15	4	0	0.000000	0.000000	0.000000	30.000000	0.000000	1.000000	51.442961	0.000000
0.897500	0.062500	0.000000	16	4	0	0.000000	0.000000	0.000000	30.000000	0.000000	1.000000	51.461264	0.000000
0.937500	0.062500	0.000000	17	4	0	0.000000	0.000000	0.000000	30.000000	0.000000	1.000000	51.465357	0.000000
0.967500	0.062500	0.000000	18	4	0	0.000000	0.000000	0.000000	30.000000	0.000000	1.000000	51.450236	0.000000
0.987500	0.062500	0.000000	19	4	0	0.000000	0.000000	0.000000	30.000000	0.000000	1.000000	51.414027	0.000000
0.997500	0.062500	0.000000	20	4	0	0.000000	0.000000	0.000000	30.000000	0.000000	1.000000	51.420038	0.000000
1.000000	0.062500	0.000000	21	4	0	0.000000	0.000000	0.000000	30.000000	0.000000	1.000000	0.000000	0.000000
0.000000	0.102500	0.000000	0	5	0	0.000000	0.000000	0.000000	10.000000	0.000000	1.000000	0.000000	0.000000
0.002500	0.102500	0.000000	1	5	0	0.000000	0.000000	0.000000	30.000000	0.093949	1.000000	51.374082	0.000000
0.012500	0.102500	0.000000	2	5	0	0.000000	0.000000	0.000000	30.000000	0.000000	1.000000	51.374093	0.000000
0.032500	0.102500	0.000000	3	5	0	0.000000	0.000000	0.000000	30.000000	0.000000	1.000000	51.372866	0.000000
0.062500	0.102500	0.000000	4	5	0	0.000000	0.000000	0.000000	30.000000	0.000000	1.000000	51.370163	0.000000
0.102500	0.102500	0.000000	5	5	0	0.000000	0.000000	0.000000	30.000000	0.000000	1.000000	51.367405	0.000000
0.152500	0.102500	0.000000	6	5	0	0.000000	0.000000	0.000000	30.000000	0.000000	1.000000	51.360786	0.000000
0.212500	0.102500	0.000000	7	5	0	0.000000	0.000000	0.000000	30.000000	0.000000	1.000000	51.359198	0.000000
0.282500	0.102500	0.000000	8	5	0	0.000000	0.000000	0.000000	30.000000	0.000000	1.000000	51.356169	0.000000
0.362500	0.102500	0.000000	9	5	0	0.000000	0.000000	0.000000	30.000000	0.000000	1.000000	51.347551	0.000000
0.452500	0.102500	0.000000	10	5	0	0.000000	0.000000	0.000000	30.000000	0.000000	1.000000	51.342844	0.000000
0.547500	0.102500	0.000000	11	5	0	0.000000	0.000000	0.000000	30.000000	0.000000	1.000000	51.348563	0.000000
0.637500	0.102500	0.000000	12	5	0	0.000000	0.000000	0.000000	30.000000	0.000000	1.000000	51.363760	0.000000
0.717500	0.102500	0.000000	13	5	0	0.000000	0.000000	0.000000	30.000000	0.000000	1.000000	51.386316	0.000000
0.787500	0.102500	0.000000	14	5	0	0.000000	0.000000	0.000000	30.000000	0.000000	1.000000	51.413665	0.000000
0.847500	0.102500	0.000000	15	5	0	0.000000	0.000000	0.000000	30.000000	0.000000	1.000000	51.440600	0.000000
0.897500	0.102500	0.000000	16	5	0	0.000000	0.000000	0.000000	30.000000	0.000000	1.000000	51.461488	0.000000
0.937500	0.102500	0.000000	17	5	0	0.000000	0.000000	0.000000	30.000000	0.000000	1.000000	51.472319	0.000000
0.967500	0.102500	0.000000	18	5	0	0.000000	0.000000	0.000000	30.000000	0.000000	1.000000	51.472247	0.000000
0.987500	0.102500	0.000000	19	5	0	0.000000	0.000000	0.000000	30.000000	0.000000	1.000000	51.465821	0.000000
0.997500	0.102500	0.000000	20	5	0	0.000000	0.000000	0.000000	30.000000	0.000000	1.000000	51.466611	0.000000
1.000000	0.102500	0.000000	21	5	0	0.000000	0.000000	0.000000	30.000000	0.000000	1.000000	0.000000	0.000000
0.000000	0.152500	0.000000	0	6	0	0.000000	0.000000	0.000000	10.000000	0.000000	1.000000	0.000000	0.000000
0.002500	0.152500	0.000000	1	6	0	0.000000	0.000000	0.000000	30.000000	0.093557	1.000000	51.375853	0.000000
0.012500	0.152500	0.000000	2	6	0	0.000000	0.000000	0.000000	30.000000	0.000000	1.000000	51.375778	0.000000
0.032500	0.152500	0.000000	3	6	0	0.000000	0.000000	0.000000	30.000000	0.000000	1.000000	51.373410	0.000000
0.062500	0.152500	0.000000	4	6	0	0.000000	0.000000	0.000000	30.000000	0.000000	1.000000	51.369258	0.000000
0.102500	0.152500	0.000000	5	6	0	0.000000	0.000000	0.000000	30.000000	0.000000	1.000000	51.365843	0.000000
0.152500	0.152500	0.000000	6	6	0	0.000000	0.000000	0.000000	30.000000	0.000000	1.000000	51.361862	0.000000
0.212500	0.152500	0.000000	7	6	0	0.000000	0.000000	0.000000	30.000000	0.000000	1.000000	51.360245	0.000000
0.282500	0.152500	0.000000	8	6	0	0.000000	0.000000	0.000000	30.000000	0.000000	1.000000	51.354866	0.000000
0.362500	0.152500	0.000000	9	6	0	0.000000	0.000000	0.000000	30.000000	0.000000	1.000000	51.347067	0.000000
0.452500	0.152500	0.000000	10	6	0	0.000000	0.000000	0.000000	30.000000	0.000000	1.000000	51.342225	0.000000
0.547500	0.152500	0.000000	11	6	0	0.000000	0.000000	0.000000	30.000000	0.000000	1.000000	51.347540	0.000000
0.637500	0.152500	0.000000	12	6	0	0.000000	0.000000	0.000000	30.000000	0.000000	1.000000	51.362717	0.000000
0.717500	0.152500	0.000000	13	6	0	0.000000	0.000000	0.000000	30.000000	0.000000	1.000000	51.385854	0.000000
0.787500	0.152500	0.000000	14	6	0	0.000000	0.000000	0.000000	30.000000	0.000000	1.000000	51.413879	0.000000
0.847500	0.152500	0.000000	15	6	0	0.000000	0.000000	0.000000	30.000000	0.000000	1.000000	51.441099	0.000000
0.897500	0.152500	0.000000	16	6	0	0.000000	0.000000	0.000000	30.000000	0.000000	1.000000	51.461993	0.000000
0.937500	0.152500	0.000000	17	6	0	0.000000	0.000000	0.000000	30.000000	0.000000	1.000000	51.473181	0.000000
0.967500	0.152500	0.000000	18	6	0	0.000000	0.000000	0.000000	30.000000	0.000000	1.000000	51.474871	0.000000
0.987500	0.152500	0.000000	19	6	0	0.000000	0.000000	0.000000	30.000000	0.000000	1.000000	51.474280	0.000000
0.997500	0.152500	0.000000	20	6	0	0.000000	0.000000	0.000000	30.000000	0.000000	1.000000	51.472909	0.000000
1.000000	0.152500	0.000000	21	6	0	0.000000	0.000000	0.000000	30.000000	0.000000	1.000000	0.000000	0.000000
0.000000	0.212500	0.000000	0	7	0	0.000000	0.000000	0.000000	10.000000	0.000000	1.000000	0.000000	0.000000
0.002500	0.212500	0.000000	1	7	0	0.000000	0.000000	0.000000	30.000000	0.091164	1.000000	51.389467	0.000000
0.012500	0.212500	0.000000	2	7	0	0.000000	0.000000	0.000000	30.000000	0.000000	1.000000	51.389155	0.000000
0.032500	0.212500	0.000000	3	7	0	0.000000	0.000000	0.000000	30.000000	0.000000	1.000000	51.384711	0.000000
0.062500	0.212500	0.000000	4	7	0	0.000000	0.000000	0.000000	30.000000	0.000000	1.000000	51.375993	0.000000
0.102500	0.212500	0.000000	5	7	0	0.000000	0.000000	0.000000	30.000000	0.000000	1.000000	51.365595	0.000000
0.152500	0.212500	0.000000	6	7	0	0.000000	0.000000	0.000000	30.000000	0.000000	1.000000	51.362711	0.000000
0.212500	0.212500	0.000000	7	7	0	0.000000	0.000000	0.000000	30.000000	0.000000	1.000000	51.359876	0.000000
0.282500	0.212500	0.000000	8	7	0	0.000000	0.000000	0.000000	30.000000	0.000000	1.000000	51.351953	0.000000
0.362500	0.212500	0.000000	9	7	0	0.000000	0.000000	0.000000	30.000000	0.000000	1.000000	51.343810	0.000000
0.452500	0.212500	0.000000	10	7	0	0.000000	0.000000	0.000000	30.000000	0.000000	1.000000	51.341461	0.000000
0.547500	0.212500	0.000000	11	7	0	0.000000	0.000000	0.000000	30.000000	0.000000	1.000000	51.348571	0.000000
0.637500	0.212500	0.000000	12	7	0	0.000000	0.000000	0.000000	30.000000	0.000000	1.000000	51.365965	0.000000
0.717500	0.212500	0.000000	13	7	0	0.000000	0.000000	0.000000	30.000000	0.000000	1.000000	51.392207	0.000000
0.787500	0.212500	0.000000	14	7	0	0.000000	0.000000	0.000000	30.000000	0.000000	1.000000	51.423194	0.000000
0.847500	0.212500	0.000000	15	7	0	0.000000	0.000000	0.000000	30.000000	0.000000	1.000000	51.452200	0.000000
0.897500	0.212500	0.000000	16	7	0	0.000000	0.000000	0.000000	30.000000	0.000000	1.000000	51.474832	0.000000
0.937500	0.212500	0.000000	17	7	0	0.000000	0.000000	0.000000	30.000000	0.000000	1.000000	51.490323	0.000000
0.967500	0.212500	0.000000	18	7	0	0.000000	0.000000	0.000000	30.000000	0.000000	1.000000	51.497723	0.000000
0.987500	0.212500	0.000000	19	7	0	0.000000	0.000000	0.000000	30.000000	0.000000	1.000000	51.498551	0.000000
0.997500	0.212500	0.000000	20	7	0	0.000000	0.000000	0.000000	30.000000	0.000000	1.000000	51.499865	0.000000
1.000000	0.212500	0.000000	21	7	0	0.000000	0.000000	0.000000	30.000000	0.000000	1.000000	0.000000	0.000000
0.000000	0.282500	0.000000	0	8	0	0.000000	0.000000	0.000000	10.000000	0.000000	1.000000	0.000000	0.000000
0.002500	0.282500	0.000000	1	8	0	0.000000	0.000000	0.000000	30.000000	0.092196	1.000000	51.390009	0.000000
0.012500	0.282500	0.000000	2	8	0	0.000000	0.000000	0.000000	30.000000	0.000000	1.000000	51.389840	0.000000
0.032500	0.282500	0.000000	3	8	0	0.000000	0.000000	0.000000	30.000000	0.000000	1.000000	51.386167	0.000000
0.062500	0.282500	0.000000	4	8	0	0.000000	0.000000	0.000000	30.000000	0.000000	1.000000	51.377852	0.000000
0.102500	0.282500	0.000000	5	8	0	0.000000	0.000000	0.000000	30.000000	0.000000	1.000000	51.366700	0.000000
0.152500	0.282500	0.000000	6	8	0	0.000000	0.000000	0.000000	30.000000	0.000000	1.000000	51.363171	0.000000
0.212500	0.282500	0.000000	7	8	0	0.000000	0.000000	0.000000	30.000000	0.000000	1.000000	51.359321	0.000000
0.282500	0.282500	0.000000	8	8	0	0.000000	0.000000	0.000000	30.000000	0.000000	1.000000	51.349481	0.000000
0.362500	0.282500	0.000000	9	8	0	0.000000	0.000000	0.000000	30.000000	0.000000	1.000000	51.342578	0.000000
0.452500	0.282500	0.000000	10	8	0	0.000000	0.000000	0.000000	30.000000	0.000000	1.000000	51.342023	0.000000
0.547500	0.282500	0.000000	11	8	0	0.000000	0.000000	0.000000	30.000000	0.000000	1.000000	51.350420	0.000000
0.637500	0.282500	0.000000	12	8	0	0.000000	0.000000	0.000000	30.000000	0.000000	1.000000	51.369416	0.000000
0.717500	0.282500	0.000000	13	8	0	0.000000	0.000000	0.000000	30.000000	0.000000	1.000000	51.397129	0.000000
0.787500	0.282500	0.000000	14	8	0	0.000000	0.000000	0.000000	30.000000	0.000000	1.000000	51.428075	0.000000
0.847500	0.282500	0.000000	15	8	0	0.000000	0.000000	0.000000	30.000000	0.000000	1.000000	51.454753	0.000000
0.897500	0.282500	0.000000	16	8	0	0.000000	0.000000	0.000000	30.000000	0.000000	1.000000	51.472785	0.000000
0.937500	0.282500	0.000000	17	8	0	0.000000	0.000000	0.000000	30.000000	0.000000	1.000000	51.482288	0.000000
0.967500	0.282500	0.000000	18	8	0	0.000000	0.000000	0.000000	30.000000	0.000000	1.000000	51.485244	0.000000
0.987500	0.282500	0.000000	19	8	0	0.000000	0.000000	0.000000	30.000000	0.000000	1.000000	51.484195	0.000000
0.997500	0.282500	0.000000	20	8	0	0.000000	0.000000	0.000000	30.000000	0.000000	1.000000	51.485214	0.000000
1.000000	0.282500	0.000000	21	8	0	0.000000	0.000000	0.000000	30.000000	0.000000	1.000000	0.000000	0.000000
0.000000	0.362500	0.000000	0	9	0	0.000000	0.000000	0.000000	10.000000	0.000000	1.000000	0.000000	0.000000
0.002500	0.362500	0.000000	1	9	0	0.000000	0.000000	0.000000	30.000000	0.092622	1.000000	51.383932	0.000000
0.012500	0.362500	0.000000	2	9	0	0.000000	0.000000	0.000000	30.000000	0.000000	1.000000	51.383845	0.000000
0.032500	0.362500	0.000000	3	9	0	0.000000	0.000000	0.000000	30.000000	0.000000	1.000000	51.380856	0.000000
0.062500	0.362500	0.000000	4	9	0	0.000000	0.000000	0.000000	30.000000	0.000000	1.000000	51.373564	0.000000
0.102500	0.362500	0.000000	5	9	0	0.000000	0.000000	0.000000	30.000000	0.000000	1.000000	51.365456	0.000000
0.152500	0.362500	0.000000	6	9	0	0.000000	0.000000	0.000000	30.000000	0.000000	1.000000	51.362938	0.000000
0.212500	0.362500	0.000000	7	9	0	0.000000	0.000000	0.000000	30.000000	0.000000	1.000000	51.358153	0.000000
0.282500	0.362500	0.000000	8	9	0	0.000000	0.000000	0.000000	30.000000	0.000000	1.000000	51.348345	0.000000
0.362500	0.362500	0.000000	9	9	0	0.000000	0.000000	0.000000	30.000000	0.000000	1.000000	51.343443	0.000000
0.452500	0.362500	0.000000	10	9	0	0.000000	0.000000	0.000000	30.000000	0.000000	1.000000	51.344552	0.000000
0.547500	0.362500	0.000000	11	9	0	0.000000	0.000000	0.000000	30.000000	0.000000	1.000000	51.354125	0.000000
0.637500	0.362500	0.000000	12	9	0	0.000000	0.000000	0.000000	30.000000	0.000000	1.000000	51.373895	0.000000
0.717500	0.362500	0.000000	13	9	0	0.000000	0.000000	0.000000	30.000000	0.000000	1.000000	51.401132	0.000000
0.787500	0.362500	0.000000	14	9	0	0.000000	0.000000	0.000000	30.000000	0.000000	1.000000	51.429722	0.000000
0.847500	0.362500	0.000000	15	9	0	0.000000	0.000000	0.000000	30.000000	0.000000	1.000000	51.452692	0.000000
0.897500	0.362500	0.000000	16	9	0	0.000000	0.000000	0.000000	30.000000	0.000000	1.000000	51.466357	0.000000
0.937500	0.362500	0.000000	17	9	0	0.000000	0.000000	0.000000	30.000000	0.000000	1.000000	51.471481	0.000000
0.967500	0.362500	0.000000	18	9	0	0.000000	0.000000	0.000000	30.000000	0.000000	1.000000	51.471634	0.000000
0.987500	0.362500	0.000000	19	9	0	0.000000	0.000000	0.000000	30.000000	0.000000	1.000000	51.470518	0.000000
0.997500	0.362500	0.000000	20	9	0	0.000000	0.000000	0.000000	30.000000	0.000000	1.000000	51.471180	0.000000
1.000000	0.362500	0.000000	21	9	0	0.000000	0.000000	0.000000	30.000000	0.000000	1.000000	0.000000	0.000000
0.000000	0.452500	0.000000	0	10	0	0.000000	0.000000	0.000000	10.000000	0.000000	1.000000	0.000000	0.000000
0.002500	0.452500	0.000000	1	10	0	0.000000	0.000000	0.000000	30.000000	0.092127	1.000000	51.377628	0.000000
0.012500	0.452500	0.000000	2	10	0	0.000000	0.000000	0.000000	30.000000	0.000000	1.000000	51.377557	0.000000
0.032500	0.452500	0.000000	3	10	0	0.000000	0.000000	0.000000	30.000000	0.000000	1.000000	51.374680	0.000000
0.062500	0.452500	0.000000	4	10	0	0.000000	0.000000	0.000000	30.000000	0.000000	1.000000	51.367929	0.000000
0.102500	0.452500	0.000000	5	10	0	0.000000	0.000000	0.000000	30.000000	0.000000	1.000000	51.363207	0.000000
0.152500	0.452500	0.000000	6	10	0	0.000000	0.000000	0.000000	30.000000	0.000000	1.000000	51.361370	0.000000
0.212500	0.452500	0.000000	7	10	0	0.000000	0.000000	0.000000	30.000000	0.000000	1.000000	51.356308	0.000000
0.282500	0.452500	0.000000	8	10	0	0.000000	0.000000	0.000000	30.000000	0.000000	1.000000	51.349143	0.000000
0.362500	0.452500	0.000000	9	10	0	0.000000	0.000000	0.000000	30.000000	0.000000	1.000000	51.345979	0.000000
0.452500	0.452500	0.000000	10	10	0	0.000000	0.000000	0.000000	30.000000	0.000000	1.000000	51.346773	0.000000
0.547500	0.452500	0.000000	11	10	0	0.000000	0.000000	0.000000	30.000000	0.000000	1.000000	51.354102	0.000000
0.637500	0.452500	0.000000	12	10	0	0.000000	0.000000	0.000000	30.000000	0.000000	1.000000	51.369980	0.000000
0.717500	0.452500	0.000000	13	10	0	0.000000	0.000000	0.000000	30.000000	0.000000	1.000000	51.391932	0.000000
0.787500	0.452500	0.000000	14	10	0	0.000000	0.000000	0.000000	30.000000	0.000000	1.000000	51.414998	0.000000
0.847500	0.452500	0.000000	15	10	0	0.000000	0.000000	0.000000	30.000000	0.000000	1.000000	51.433911	0.000000
0.897500	0.452500	0.000000	16	10	0	0.000000	0.000000	0.000000	30.000000	0.000000	1.000000	51.445627	0.000000
0.937500	0.452500	0.000000	17	10	0	0.000000	0.000000	0.000000	30.000000	0.000000	1.000000	51.450594	0.000000
0.967500	0.452500	0.000000	18	10	0	0.000000	0.000000	0.000000	30.000000	0.000000	1.000000	51.451800	0.000000
0.987500	0.452500	0.000000	19	10	0	0.000000	0.000000	0.000000	30.000000	0.000000	1.000000	51.452445	0.000000
0.997500	0.452500	0.000000	20	10	0	0.000000	0.000000	0.000000	30.000000	0.000000	1.000000	51.452952	0.000000
1.000000	0.452500	0.000000	21	10	0	0.000000	0.000000	0.000000	30.000000	0.000000	1.000000	0.000000	0.000000
0.000000	0.547500	0.000000	0	11	0	0.000000	0.000000	0.000000	10.000000	0.000000	1.000000	0.000000	0.000000
0.002500	0.547500	0.000000	1	11	0	0.000000	0.000000	0.000000	30.000000	0.098115	1.000000	51.370810	0.000000
0.012500	0.547500	0.000000	2	11	0	0.000000	0.000000	0.000000	30.000000	0.000000	1.000000	51.370782	0.000000
0.032500	0.547500	0.000000	3	11	0	0.000000	0.000000	0.000000	30.000000	0.000000	1.000000	51.369901	0.000000
0.062500	0.547500	0.000000	4	11	0	0.000000	0.000000	0.000000	30.000000	0.000000	1.000000	51.366736	0.000000
0.102500	0.547500	0.000000	5	11	0	0.000000	0.000000	0.000000	30.000000	0.000000	1.000000	51.361840	0.000000
0.152500	0.547500	0.000000	6	11	0	0.000000	0.000000	0.000000	30.000000	0.000000	1.000000	51.356673	0.000000
0.212500	0.547500	0.000000	7	11	0	0.000000	0.000000	0.000000	30.000000	0.000000	1.000000	51.351921	0.000000
0.282500	0.547500	0.000000	8	11	0	0.000000	0.000000	0.000000	30.000000	0.000000	1.000000	51.349910	0.000000
0.362500	0.547500	0.000000	9	11	0	0.000000	0.000000	0.000000	30.000000	0.000000	1.000000	51.347730	0.000000
0.452500	0.547500	0.000000	10	11	0	0.000000	0.000000	0.000000	30.000000	0.000000	1.000000	51.345352	0.000000
0.547500	0.547500	0.000000	11	11	0	0.000000	0.000000	0.000000	30.000000	0.000000	1.000000	51.351092	0.000000
0.637500	0.547500	0.000000	12	11	0	0.000000	0.000000	0.000000	30.000000	0.000000	1.000000	51.364278	0.000000
0.717500	0.547500	0.000000	13	11	0	0.000000	0.000000	0.000000	30.000000	0.000000	1.000000	51.382431	0.000000
0.787500	0.547500	0.000000	14	11	0	0.000000	0.000000	0.000000	30.000000	0.000000	1.000000	51.401366	0.000000
0.847500	0.547500	0.000000	15	11	0	0.000000	0.000000	0.000000	30.000000	0.000000	1.000000	51.417217	0.000000
0.897500	0.547500	0.000000	16	11	0	0.000000	0.000000	0.000000	30.000000	0.000000	1.000000	51.428321	0.000000
0.937500	0.547500	0.000000	17	11	0	0.000000	0.000000	0.000000	30.000000	0.000000	1.000000	51.434903	0.000000
0.967500	0.547500	0.000000	18	11	0	0.000000	0.000000	0.000000	30.000000	0.000000	1.000000	51.438172	0.000000
0.987500	0.547500	0.000000	19	11	0	0.000000	0.000000	0.000000	30.000000	0.000000	1.000000	51.439568	0.000000
0.997500	0.547500	0.000000	20	11	0	0.000000	0.000000	0.000000	30.000000	0.000000	1.000000	51.439915	0.000000
1.000000	0.547500	0.000000	21	11	0	0.000000	0.000000	0.000000	30.000000	0.000000	1.000000	0.000000	0.000000
0.000000	0.637500	0.000000	0	12	0	0.000000	0.000000	0.000000	10.000000	0.000000	1.000000	0.000000	0.000000
0.002500	0.637500	0.000000	1	12	0	0.000000	0.000000	0.000000	30.000000	0.090622	1.000000	51.375738	0.000000
0.012500	0.637500	0.000000	2	12	0	0.000000	0.000000	0.000000	30.000000	0.000000	1.000000	51.375599	0.000000
0.032500	0.637500	0.000000	3	12	0	0.000000	0.000000	0.000000	30.000000	0.000000	1.000000	51.373082	0.000000
0.062500	0.637500	0.000000	4	12	0	0.000000	0.000000	0.000000	30.000000	0.000000	1.000000	51.368179	0.000000
0.102500	0.637500	0.000000	5	12	0	0.000000	0.000000	0.000000	30.000000	0.000000	1.000000	51.361856	0.000000
0.152500	0.637500	0.000000	6	12	0	0.000000	0.000000	0.000000	30.000000	0.000000	1.000000	51.359618	0.000000
0.212500	0.637500	0.000000	7	12	0	0.000000	0.000000	0.000000	30.000000	0.000000	1.000000	51.354856	0.000000
0.282500	0.637500	0.000000	8	12	0	0.000000	0.000000	0.000000	30.000000	0.000000	1.000000	51.348594	0.000000
0.362500	0.637500	0.000000	9	12	0	0.000000	0.000000	0.000000	30.000000	0.000000	1.000000	51.346034	0.000000
0.452500	0.637500	0.000000	10	12	0	0.000000	0.000000	0.000000	30.000000	0.000000	1.000000	51.346942	0.000000
0.547500	0.637500	0.000000	11	12	0	0.000000	0.000000	0.000000	30.000000	0.000000	1.000000	51.354054	0.000000