        VARIABLES=                 X                 Y                 Z              HEAT      FLOW_WATER_G        FLOW_AIR_G      FLOW_WATER_L        FLOW_AIR_L     FDIFF_WATER_G       FDIFF_AIR_G     FDIFF_WATER_L       FDIFF_AIR_L
 ZONE T=" 0.1558500E+06 SEC"  I =     2419 
                    0.74998205398E-001  0.00000000000E+000 -0.25000000000E+000 -0.18870918855E-002 -0.11772694125E-010 -0.11085006664E-008 -0.37100953317E-012 -0.59626185003E-017  0.91181048911E-009 -0.91181048911E-009  0.10550341419E-021 -0.10550341433E-021
                    0.74998205398E-001  0.00000000000E+000 -0.75000000000E+000 -0.87758585889E-002 -0.11095139033E-011 -0.10517795615E-009  0.31506245403E-011  0.50548901436E-016 -0.20963540557E-009  0.20963540557E-009  0.25016695595E-023 -0.25016695971E-023
                    0.37597140865E-001  0.00000000000E+000 -0.15000000000E+001  0.41233692675E+002  0.00000000000E+000  0.00000000000E+000  0.00000000000E+000  0.00000000000E+000 -0.33154333997E-011  0.33154333997E-011 -0.26172429717E-019  0.26172429720E-019
                    0.37597140865E-001  0.00000000000E+000 -0.27500000000E+001  0.41445065581E+002  0.00000000000E+000  0.00000000000E+000  0.00000000000E+000  0.00000000000E+000 -0.39356995954E-011  0.39356995954E-011 -0.42654813186E-019  0.42654813192E-019
                    0.37597140865E-001  0.00000000000E+000 -0.47500000000E+001  0.41630144950E+002  0.00000000000E+000  0.00000000000E+000  0.00000000000E+000  0.00000000000E+000 -0.61158396165E-011  0.61158396165E-011 -0.61082328410E-019  0.61082328414E-019
                    0.37597140865E-001  0.00000000000E+000 -0.85000000000E+001  0.41734051683E+002  0.00000000000E+000  0.00000000000E+000  0.00000000000E+000  0.00000000000E+000 -0.16285710699E-010  0.16285710699E-010 -0.13012182193E-018  0.13012182179E-018
                    0.37597140865E-001  0.00000000000E+000 -0.13500000000E+002  0.77754369872E+002  0.00000000000E+000  0.00000000000E+000  0.00000000000E+000  0.00000000000E+000 -0.27538202211E-010  0.27538202211E-010 -0.10676238613E-017  0.10676238618E-017
                    0.37597140865E-001  0.00000000000E+000 -0.18500000000E+002  0.77874375902E+002  0.00000000000E+000  0.00000000000E+000  0.00000000000E+000  0.00000000000E+000 -0.37650783062E-010  0.37650783062E-010 -0.79972882339E-017  0.79972882356E-017
                    0.37597140865E-001  0.00000000000E+000 -0.23500000000E+002  0.99180750780E+002  0.00000000000E+000  0.00000000000E+000  0.00000000000E+000  0.00000000000E+000 -0.52163158315E-010  0.52163158315E-010 -0.31109846457E-016  0.31109846461E-016
                    0.37597140865E-001  0.00000000000E+000 -0.28500000000E+002  0.10120199340E+003  0.00000000000E+000  0.00000000000E+000  0.00000000000E+000  0.00000000000E+000 -0.35744524529E-009  0.35744524529E-009 -0.48806287156E-015  0.48806287156E-015
                    0.37597140865E-001  0.00000000000E+000 -0.33500000000E+002  0.12020962816E+003  0.00000000000E+000  0.00000000000E+000  0.00000000000E+000  0.00000000000E+000 -0.00000000000E+000  0.00000000000E+000 -0.60007572155E-014  0.60007572155E-014
                    0.37597140865E-001  0.00000000000E+000 -0.38500000000E+002  0.12023852540E+003  0.00000000000E+000  0.00000000000E+000  0.00000000000E+000  0.00000000000E+000 -0.00000000000E+000  0.00000000000E+000 -0.77801681721E-014  0.77801681721E-014
                    0.37597140865E-001  0.00000000000E+000 -0.42250000000E+002  0.42654002543E+002  0.00000000000E+000  0.00000000000E+000  0.00000000000E+000  0.00000000000E+000 -0.00000000000E+000  0.00000000000E+000 -0.43336979315E-014  0.43336979315E-014
                    0.37597140865E-001  0.00000000000E+000 -0.44250000000E+002  0.42288175271E+002  0.00000000000E+000  0.00000000000E+000  0.00000000000E+000  0.00000000000E+000 -0.00000000000E+000  0.00000000000E+000 -0.27521181337E-014  0.27521181337E-014
                    0.37597140865E-001  0.00000000000E+000 -0.45500000000E+002  0.42121345239E+002  0.00000000000E+000  0.00000000000E+000  0.00000000000E+000  0.00000000000E+000 -0.00000000000E+000  0.00000000000E+000 -0.18962738928E-014  0.18962738928E-014
                    0.37597140865E-001  0.00000000000E+000 -0.46500000000E+002  0.42202888352E+002  0.00000000000E+000  0.00000000000E+000  0.00000000000E+000  0.00000000000E+000 -0.00000000000E+000  0.00000000000E+000 -0.19409250322E-014  0.19409250322E-014
                    0.37597140865E-001  0.00000000000E+000 -0.47500000000E+002  0.42160425449E+002  0.00000000000E+000  0.00000000000E+000  0.00000000000E+000  0.00000000000E+000 -0.00000000000E+000  0.00000000000E+000 -0.19836233740E-014  0.19836233740E-014
                    0.37597140865E-001  0.00000000000E+000 -0.48500000000E+002  0.42193000785E+002  0.00000000000E+000  0.00000000000E+000  0.00000000000E+000  0.00000000000E+000 -0.00000000000E+000  0.00000000000E+000 -0.20259468084E-014  0.20259468084E-014
                    0.37597140865E-001  0.00000000000E+000 -0.49500000000E+002  0.42214071100E+002  0.00000000000E+000  0.00000000000E+000  0.00000000000E+000  0.00000000000E+000 -0.00000000000E+000  0.00000000000E+000 -0.20683719015E-014  0.20683719015E-014
                    0.37597140865E-001  0.00000000000E+000 -0.50500000000E+002  0.42160398531E+002  0.00000000000E+000  0.00000000000E+000  0.00000000000E+000  0.00000000000E+000 -0.00000000000E+000  0.00000000000E+000 -0.21126314742E-014  0.21126314742E-014
                    0.37597140865E-001  0.00000000000E+000 -0.51500000000E+002  0.42373303157E+002  0.00000000000E+000  0.00000000000E+000  0.00000000000E+000  0.00000000000E+000 -0.00000000000E+000 -0.00000000000E+000 -0.11263471436E-014  0.11263471436E-014
                    0.37597140865E-001  0.00000000000E+000 -0.52500000000E+002  0.42359273238E+002  0.00000000000E+000  0.00000000000E+000  0.00000000000E+000  0.00000000000E+000 -0.00000000000E+000 -0.00000000000E+000 -0.91929127304E-015  0.91929127300E-015
                    0.37597140865E-001  0.00000000000E+000 -0.53500000000E+002  0.42353682857E+002  0.00000000000E+000  0.00000000000E+000  0.00000000000E+000  0.00000000000E+000 -0.00000000000E+000 -0.00000000000E+000 -0.83209417607E-015  0.83209417605E-015
                    0.37597140865E-001  0.00000000000E+000 -0.54500000000E+002  0.42362779302E+002  0.00000000000E+000  0.00000000000E+000  0.00000000000E+000  0.00000000000E+000 -0.00000000000E+000 -0.00000000000E+000 -0.85045767899E-015  0.85045767900E-015
                    0.37597140865E-001  0.00000000000E+000 -0.55500000000E+002  0.42346837120E+002  0.00000000000E+000  0.00000000000E+000  0.00000000000E+000  0.00000000000E+000 -0.00000000000E+000 -0.00000000000E+000 -0.88465401043E-015  0.88465401041E-015
                    0.37597140865E-001  0.00000000000E+000 -0.56500000000E+002  0.42321916611E+002  0.00000000000E+000  0.00000000000E+000  0.00000000000E+000  0.00000000000E+000 -0.00000000000E+000 -0.00000000000E+000 -0.92294740651E-015  0.92294740655E-015
                    0.37597140865E-001  0.00000000000E+000 -0.57750000000E+002  0.42401736408E+002  0.00000000000E+000  0.00000000000E+000  0.00000000000E+000  0.00000000000E+000 -0.00000000000E+000 -0.00000000000E+000 -0.14340830818E-014  0.14340830817E-014
                    0.37597140865E-001  0.00000000000E+000 -0.59750000000E+002  0.42336529744E+002  0.00000000000E+000  0.00000000000E+000  0.00000000000E+000  0.00000000000E+000 -0.00000000000E+000 -0.00000000000E+000 -0.23949333073E-014  0.23949333072E-014
                    0.37597140865E-001  0.00000000000E+000 -0.63500000000E+002  0.11666435091E+003  0.00000000000E+000  0.00000000000E+000  0.00000000000E+000  0.00000000000E+000 -0.00000000000E+000 -0.00000000000E+000 -0.48735020469E-014  0.48735020468E-014
                    0.37597140865E-001  0.00000000000E+000 -0.68500000000E+002  0.11664173780E+003  0.00000000000E+000  0.00000000000E+000  0.00000000000E+000  0.00000000000E+000 -0.00000000000E+000 -0.00000000000E+000 -0.47083353529E-014  0.47083353528E-014
                    0.37597140865E-001  0.00000000000E+000 -0.76000000000E+002  0.16875130017E+003  0.00000000000E+000  0.00000000000E+000  0.00000000000E+000  0.00000000000E+000 -0.00000000000E+000 -0.00000000000E+000 -0.83409853633E-014  0.83409853632E-014
                    0.37597140865E-001  0.00000000000E+000 -0.86000000000E+002  0.17192691800E+003  0.00000000000E+000  0.00000000000E+000  0.00000000000E+000  0.00000000000E+000 -0.00000000000E+000 -0.00000000000E+000 -0.68303628235E-014  0.68303628236E-014
                    0.37597140865E-001  0.00000000000E+000 -0.93500000000E+002  0.95289277263E+002  0.00000000000E+000  0.00000000000E+000  0.00000000000E+000  0.00000000000E+000 -0.00000000000E+000 -0.00000000000E+000 -0.29440361686E-014  0.29440361687E-014
                    0.37597140865E-001  0.00000000000E+000 -0.97500000000E+002  0.95305146686E+002  0.00000000000E+000  0.00000000000E+000  0.00000000000E+000  0.00000000000E+000 -0.00000000000E+000 -0.00000000000E+000 -0.18718414568E-014  0.18718414568E-014
                    0.37597140865E-001  0.00000000000E+000 -0.10000000000E+003  0.95276223988E+002  0.00000000000E+000  0.00000000000E+000  0.00000000000E+000  0.00000000000E+000 -0.00000000000E+000 -0.00000000000E+000 -0.14211043849E-014  0.14211043849E-014
                    0.74998205398E-001  0.00000000000E+000 -0.10200000000E+003  0.95818252312E+000  0.00000000000E+000  0.00000000000E+000  0.12471259075E-004  0.12471383473E-009  0.00000000000E+000  0.00000000000E+000  0.00000000000E+000 -0.41478008653E-025
                    0.74998205398E-001  0.00000000000E+000 -0.10500000000E+003  0.26956647051E-001  0.00000000000E+000  0.00000000000E+000  0.36474622384E-006  0.36474986212E-011  0.00000000000E+000  0.00000000000E+000  0.00000000000E+000 -0.56008409620E-025
                    0.74998205398E-001  0.00000000000E+000 -0.11100000000E+003 -0.51470400436E-001  0.00000000000E+000  0.00000000000E+000 -0.67727171941E-006 -0.67727847508E-011  0.00000000000E+000  0.00000000000E+000  0.00000000000E+000  0.32173599375E-024
                    0.74998205398E-001  0.00000000000E+000 -0.12300000000E+003 -0.16434628075E+000  0.00000000000E+000  0.00000000000E+000 -0.21217374805E-005 -0.21217586445E-010  0.00000000000E+000  0.00000000000E+000  0.00000000000E+000  0.44251618507E-025
                    0.74998205398E-001  0.00000000000E+000 -0.14700000000E+003 -0.99733026302E+000  0.00000000000E+000  0.00000000000E+000 -0.12517743746E-004 -0.12517868609E-009  0.00000000000E+000  0.00000000000E+000  0.00000000000E+000 -0.12420683203E-023
                    0.74998205398E-001  0.00000000000E+000 -0.19500000000E+003  0.24155913239E+000  0.00000000000E+000  0.00000000000E+000  0.28786112105E-005  0.28786399242E-010  0.00000000000E+000  0.00000000000E+000  0.00000000000E+000  0.00000000000E+000
                    0.83584331342E-001  0.00000000000E+000 -0.25000000000E+000 -0.12468363233E-002 -0.21437181882E-010 -0.20128519002E-008 -0.28587471009E-012 -0.45807104610E-017 -0.31868810361E-011  0.31868810361E-011  0.22087367488E-026 -0.22086272031E-026
                    0.83584331342E-001  0.00000000000E+000 -0.75000000000E+000  0.29884289376E-001 -0.35997369393E-012 -0.34146184225E-010  0.29526558741E-011  0.47372627079E-016  0.98926410704E-010 -0.98926410704E-010  0.49154211960E-025 -0.49154032697E-025
                    0.83584331342E-001  0.00000000000E+000 -0.15000000000E+001  0.41186300531E+002  0.51765431593E-009  0.82326600533E-007 -0.89554206413E-008 -0.14495057243E-012  0.82359093443E-007 -0.82359093443E-007  0.11834686749E-021 -0.11834686775E-021
                    0.83584331342E-001  0.00000000000E+000 -0.27500000000E+001  0.41456971157E+002  0.72832812226E-009  0.97302713997E-007 -0.24639055940E-007 -0.39913514810E-012  0.97316039248E-007 -0.97316039248E-007  0.25445815631E-021 -0.25445815584E-021
                    0.83584331342E-001  0.00000000000E+000 -0.47500000000E+001  0.41646547341E+002  0.96226615308E-009  0.11130363638E-006 -0.41604025064E-007 -0.67576839075E-012  0.11133643765E-006 -0.11133643765E-006  0.53444303839E-021 -0.53444304573E-021
                    0.83584331342E-001  0.00000000000E+000 -0.85000000000E+001  0.41751748930E+002  0.11730771588E-008  0.12183664405E-006 -0.74618478829E-007 -0.12212976517E-011  0.12197243367E-006 -0.12197243367E-006  0.13464364915E-020 -0.13464364648E-020
                    0.83584331342E-001  0.00000000000E+000 -0.13500000000E+002  0.77271247890E+002  0.17824057137E-008  0.20092966697E-006 -0.15841494940E-006 -0.26366438943E-011  0.20060699172E-006 -0.20060699172E-006  0.11278283528E-019 -0.11278283655E-019
                    0.83584331342E-001  0.00000000000E+000 -0.18500000000E+002  0.77358376412E+002  0.16120331962E-008  0.18169100065E-006 -0.15015486762E-006 -0.25522820110E-011  0.18052581909E-006 -0.18052581909E-006  0.10814675413E-018 -0.10814675408E-018
                    0.83584331342E-001  0.00000000000E+000 -0.23500000000E+002  0.98384364823E+002  0.13677335324E-008  0.16081228533E-006 -0.48398423751E-007 -0.85066855910E-012  0.14546863957E-006 -0.14546863957E-006  0.37829732013E-017 -0.37829732266E-017
                    0.83584331342E-001  0.00000000000E+000 -0.28500000000E+002  0.10034110750E+003  0.17563125011E-011  0.39648877966E-009  0.40855443758E-007  0.14897457098E-011  0.55643835752E-010 -0.55643835752E-010  0.64860665751E-015 -0.64860664266E-015
                    0.83584331342E-001  0.00000000000E+000 -0.33500000000E+002  0.11878300490E+003  0.00000000000E+000  0.00000000000E+000  0.30641556405E-005  0.19367546647E-009  0.00000000000E+000 -0.00000000000E+000  0.12204298353E-014 -0.12204298633E-014
                    0.83584331342E-001  0.00000000000E+000 -0.38500000000E+002  0.11873427711E+003  0.00000000000E+000  0.00000000000E+000  0.18889364297E-005  0.15469001123E-009  0.00000000000E+000 -0.00000000000E+000  0.11640687431E-014 -0.11640687278E-014
                    0.83584331342E-001  0.00000000000E+000 -0.42250000000E+002  0.41772543486E+002  0.00000000000E+000  0.00000000000E+000  0.21479065700E-006  0.19707194153E-010  0.00000000000E+000 -0.00000000000E+000  0.29759884167E-015 -0.29759884707E-015
                    0.83584331342E-001  0.00000000000E+000 -0.44250000000E+002  0.41423977494E+002  0.00000000000E+000  0.00000000000E+000  0.86702981370E-007  0.83892613296E-011  0.00000000000E+000 -0.00000000000E+000  0.33374924307E-015 -0.33374924468E-015
                    0.83584331342E-001  0.00000000000E+000 -0.45500000000E+002  0.41258417278E+002  0.00000000000E+000  0.00000000000E+000 -0.99067784142E-008 -0.98918891475E-012  0.00000000000E+000 -0.00000000000E+000  0.33475367535E-015 -0.33475367849E-015
                    0.83584331342E-001  0.00000000000E+000 -0.46500000000E+002  0.41335151827E+002  0.00000000000E+000  0.00000000000E+000 -0.24072086651E-007 -0.24624167282E-011  0.00000000000E+000 -0.00000000000E+000  0.32053073964E-015 -0.32053073534E-015
                    0.83584331342E-001  0.00000000000E+000 -0.47500000000E+002  0.41306396401E+002  0.00000000000E+000  0.00000000000E+000 -0.12250174679E-007 -0.12830188183E-011  0.00000000000E+000 -0.00000000000E+000  0.31962438956E-015 -0.31962438812E-015
                    0.83584331342E-001  0.00000000000E+000 -0.48500000000E+002  0.41326389883E+002  0.00000000000E+000  0.00000000000E+000  0.22254561739E-007  0.23849489620E-011  0.00000000000E+000 -0.00000000000E+000  0.27421268765E-015 -0.27421269178E-015
                    0.83584331342E-001  0.00000000000E+000 -0.49500000000E+002  0.41346498200E+002  0.00000000000E+000  0.00000000000E+000  0.62956804574E-007  0.68986491565E-011  0.00000000000E+000 -0.00000000000E+000  0.29983205931E-015 -0.29983205362E-015
                    0.83584331342E-001  0.00000000000E+000 -0.50500000000E+002  0.41311518816E+002  0.00000000000E+000  0.00000000000E+000  0.11738956027E-006  0.13136865940E-010  0.00000000000E+000 -0.00000000000E+000  0.24426621705E-015 -0.24426622252E-015
                    0.83584331342E-001  0.00000000000E+000 -0.51500000000E+002  0.41327532517E+002  0.00000000000E+000  0.00000000000E+000  0.14576755687E-006  0.34106241303E-011  0.00000000000E+000  0.00000000000E+000 -0.24627534637E-014  0.24627534657E-014
                    0.83584331342E-001  0.00000000000E+000 -0.52500000000E+002  0.41312697314E+002  0.00000000000E+000  0.00000000000E+000  0.15630602971E-006  0.21879151297E-011  0.00000000000E+000  0.00000000000E+000 -0.18662032032E-015  0.18662032604E-015
                    0.83584331342E-001  0.00000000000E+000 -0.53500000000E+002  0.41306605893E+002  0.00000000000E+000  0.00000000000E+000  0.15651855483E-006  0.17022089351E-011  0.00000000000E+000  0.00000000000E+000 -0.27992843752E-017  0.27992881883E-017
                    0.83584331342E-001  0.00000000000E+000 -0.54500000000E+002  0.41315802536E+002  0.00000000000E+000  0.00000000000E+000  0.15311021381E-006  0.15536162384E-011  0.00000000000E+000  0.00000000000E+000 -0.57615011590E-017  0.57614962223E-017
                    0.83584331342E-001  0.00000000000E+000 -0.55500000000E+002  0.41298361272E+002  0.00000000000E+000  0.00000000000E+000  0.14791304811E-006  0.14819865258E-011  0.00000000000E+000  0.00000000000E+000 -0.10894254882E-018  0.10894575931E-018
                    0.83584331342E-001  0.00000000000E+000 -0.56500000000E+002  0.41259736791E+002  0.00000000000E+000  0.00000000000E+000  0.12288528549E-006  0.12291591594E-011  0.00000000000E+000  0.00000000000E+000 -0.49113274207E-020  0.49038034705E-020
                    0.83584331342E-001  0.00000000000E+000 -0.57750000000E+002  0.41366040879E+002  0.00000000000E+000  0.00000000000E+000  0.19977571140E-006  0.19978030239E-011  0.00000000000E+000  0.00000000000E+000 -0.76727983209E-020  0.76751211407E-020
                    0.83584331342E-001  0.00000000000E+000 -0.59750000000E+002  0.41324734725E+002  0.00000000000E+000  0.00000000000E+000  0.34236421263E-006  0.34236772107E-011  0.00000000000E+000  0.00000000000E+000 -0.12818280879E-019  0.12829896377E-019
                    0.83584331342E-001  0.00000000000E+000 -0.63500000000E+002  0.11434813105E+003  0.00000000000E+000  0.00000000000E+000  0.61494159849E-006  0.61494773243E-011  0.00000000000E+000  0.00000000000E+000 -0.26087886489E-019  0.26092366723E-019
                    0.83584331342E-001  0.00000000000E+000 -0.68500000000E+002  0.11431944328E+003  0.00000000000E+000  0.00000000000E+000  0.53590953528E-006  0.53591488089E-011  0.00000000000E+000  0.00000000000E+000 -0.25191078042E-019  0.25208410504E-019
                    0.83584331342E-001  0.00000000000E+000 -0.76000000000E+002  0.16535831495E+003  0.00000000000E+000  0.00000000000E+000  0.89924191065E-006  0.89925088044E-011  0.00000000000E+000  0.00000000000E+000 -0.44613849854E-019  0.44659635879E-019
                    0.83584331342E-001  0.00000000000E+000 -0.86000000000E+002  0.16840719522E+003  0.00000000000E+000  0.00000000000E+000  0.61574680861E-006  0.61575295058E-011  0.00000000000E+000  0.00000000000E+000 -0.36542602154E-019  0.36585659862E-019
                    0.83584331342E-001  0.00000000000E+000 -0.93500000000E+002  0.92658168855E+002  0.00000000000E+000  0.00000000000E+000  0.22319161429E-006  0.22319384059E-011  0.00000000000E+000  0.00000000000E+000 -0.15772240641E-019  0.15763912842E-019
                    0.83584331342E-001  0.00000000000E+000 -0.97500000000E+002  0.92790663004E+002  0.00000000000E+000  0.00000000000E+000  0.29288246029E-007  0.29288538175E-012  0.00000000000E+000  0.00000000000E+000 -0.10039388747E-019  0.10026946533E-019
                    0.83584331342E-001  0.00000000000E+000 -0.10000000000E+003  0.92734475693E+002  0.00000000000E+000  0.00000000000E+000 -0.28267778562E-007 -0.28268060435E-012  0.00000000000E+000  0.00000000000E+000 -0.76079177812E-020  0.75984609259E-020
                    0.83584331342E-001  0.00000000000E+000 -0.10200000000E+003  0.10423599984E+001  0.00000000000E+000  0.00000000000E+000  0.12826573814E-004  0.12826701757E-009  0.00000000000E+000  0.00000000000E+000  0.00000000000E+000  0.29309023899E-024
                    0.83584331342E-001  0.00000000000E+000 -0.10500000000E+003  0.33912113434E-001  0.00000000000E+000  0.00000000000E+000  0.45222576260E-006  0.45223027348E-011  0.00000000000E+000  0.00000000000E+000  0.00000000000E+000  0.35350180740E-024
                    0.83584331342E-001  0.00000000000E+000 -0.11100000000E+003 -0.63929213250E-001  0.00000000000E+000  0.00000000000E+000 -0.84121012164E-006 -0.84121851258E-011  0.00000000000E+000  0.00000000000E+000  0.00000000000E+000  0.21474743503E-024
                    0.83584331342E-001  0.00000000000E+000 -0.12300000000E+003 -0.20432342089E+000  0.00000000000E+000  0.00000000000E+000 -0.26352958442E-005 -0.26353221308E-010  0.00000000000E+000  0.00000000000E+000  0.00000000000E+000 -0.13683014358E-023
                    0.83584331342E-001  0.00000000000E+000 -0.14700000000E+003 -0.12415659371E+001  0.00000000000E+000  0.00000000000E+000 -0.15547569588E-004 -0.15547724673E-009  0.00000000000E+000  0.00000000000E+000  0.00000000000E+000 -0.41865915131E-023
                    0.83584331342E-001  0.00000000000E+000 -0.19500000000E+003  0.30003375964E+000  0.00000000000E+000  0.00000000000E+000  0.35754414892E-005  0.35754771536E-010  0.00000000000E+000  0.00000000000E+000  0.00000000000E+000  0.00000000000E+000
                    0.93414398785E-001  0.00000000000E+000 -0.25000000000E+000 -0.38394187717E-003 -0.21298622538E-010 -0.19998456428E-008 -0.30670857859E-012 -0.49145413816E-017 -0.30170377537E-012  0.30170377537E-012  0.30723572364E-026 -0.30722945026E-026
                    0.93414398785E-001  0.00000000000E+000 -0.75000000000E+000  0.73824713845E-001 -0.21312018900E-011 -0.20214822784E-009  0.33901508285E-011  0.54391690090E-016  0.24445669401E-009 -0.24445669401E-009  0.12234385863E-024 -0.12234399509E-024
                    0.93414398785E-001  0.00000000000E+000 -0.15000000000E+001  0.41113270275E+002  0.56542495547E-009  0.86020208972E-007  0.23472097627E-009  0.37958221852E-014  0.85998943532E-007 -0.85998943532E-007  0.89463466378E-022 -0.89463466736E-022
                    0.93414398785E-001  0.00000000000E+000 -0.27500000000E+001  0.41430396715E+002  0.77417516853E-009  0.10045171954E-006  0.31832192957E-009  0.51530699929E-014  0.10037391668E-006 -0.10037391668E-006  0.19110190778E-021 -0.19110191002E-021
                    0.93414398785E-001  0.00000000000E+000 -0.47500000000E+001  0.41607878395E+002  0.99832429795E-009  0.11349784434E-006 -0.33732565735E-008 -0.54778858002E-013  0.11346867722E-006 -0.11346867722E-006  0.41651991765E-021 -0.41651991156E-021
                    0.93414398785E-001  0.00000000000E+000 -0.85000000000E+001  0.41705484110E+002  0.11921370699E-008  0.12277032432E-006 -0.11115186211E-007 -0.18190203768E-012  0.12304016752E-006 -0.12304016752E-006  0.12086465860E-020 -0.12086465552E-020
                    0.93414398785E-001  0.00000000000E+000 -0.13500000000E+002  0.76675415650E+002  0.18280873055E-008  0.20293074601E-006 -0.97073157009E-007 -0.16153370240E-011  0.20224518177E-006 -0.20224518177E-006  0.10666005532E-019 -0.10666005616E-019
                    0.93414398785E-001  0.00000000000E+000 -0.18500000000E+002  0.76763226036E+002  0.16577028075E-008  0.18412371697E-006 -0.93835170645E-007 -0.15946594843E-011  0.18158224325E-006 -0.18158224325E-006  0.10815384102E-018 -0.10815384011E-018
                    0.93414398785E-001  0.00000000000E+000 -0.23500000000E+002  0.97482027552E+002  0.15640989260E-008  0.18098349113E-006  0.72047423444E-007  0.12657929834E-011  0.14622956910E-006 -0.14622956910E-006  0.37976460392E-017 -0.37976460736E-017
                    0.93414398785E-001  0.00000000000E+000 -0.28500000000E+002  0.99297526903E+002  0.14181371285E-011  0.31696864814E-009  0.89744302536E-007  0.32721902444E-011  0.55585874494E-010 -0.55585874494E-010  0.64831563460E-015 -0.64831565571E-015
                    0.93414398785E-001  0.00000000000E+000 -0.33500000000E+002  0.11737950483E+003  0.00000000000E+000  0.00000000000E+000  0.69869231112E-005  0.44160289625E-009  0.00000000000E+000 -0.00000000000E+000  0.12469899082E-014 -0.12469898710E-014
                    0.93414398785E-001  0.00000000000E+000 -0.38500000000E+002  0.11722492466E+003  0.00000000000E+000  0.00000000000E+000  0.43082215876E-005  0.35280109557E-009  0.00000000000E+000 -0.00000000000E+000  0.12148966060E-014 -0.12148965813E-014
                    0.93414398785E-001  0.00000000000E+000 -0.42250000000E+002  0.40752343563E+002  0.00000000000E+000  0.00000000000E+000  0.48233006270E-006  0.44253418109E-010  0.00000000000E+000 -0.00000000000E+000  0.37013105759E-015 -0.37013105648E-015
                    0.93414398785E-001  0.00000000000E+000 -0.44250000000E+002  0.40472100027E+002  0.00000000000E+000  0.00000000000E+000  0.18944250556E-006  0.18329683512E-010  0.00000000000E+000 -0.00000000000E+000  0.41782668370E-015 -0.41782667400E-015
                    0.93414398785E-001  0.00000000000E+000 -0.45500000000E+002  0.40312393645E+002  0.00000000000E+000  0.00000000000E+000 -0.24532260904E-007 -0.24494619142E-011  0.00000000000E+000 -0.00000000000E+000  0.40005026246E-015 -0.40005026003E-015
                    0.93414398785E-001  0.00000000000E+000 -0.46500000000E+002  0.40377330028E+002  0.00000000000E+000  0.00000000000E+000 -0.57143475671E-007 -0.58452320064E-011  0.00000000000E+000 -0.00000000000E+000  0.40708515651E-015 -0.40708516017E-015
                    0.93414398785E-001  0.00000000000E+000 -0.47500000000E+002  0.40370439440E+002  0.00000000000E+000  0.00000000000E+000 -0.28931046403E-007 -0.30299994741E-011  0.00000000000E+000 -0.00000000000E+000  0.38921215925E-015 -0.38921215910E-015
                    0.93414398785E-001  0.00000000000E+000 -0.48500000000E+002  0.40370975033E+002  0.00000000000E+000  0.00000000000E+000  0.47895578836E-007  0.51326346956E-011  0.00000000000E+000 -0.00000000000E+000  0.39156212577E-015 -0.39156213046E-015
                    0.93414398785E-001  0.00000000000E+000 -0.49500000000E+002  0.40386940737E+002  0.00000000000E+000  0.00000000000E+000  0.14250148601E-006  0.15614462690E-010  0.00000000000E+000 -0.00000000000E+000  0.36488342194E-015 -0.36488343044E-015
                    0.93414398785E-001  0.00000000000E+000 -0.50500000000E+002  0.40382616386E+002  0.00000000000E+000  0.00000000000E+000  0.26114893531E-006  0.29223985228E-010  0.00000000000E+000 -0.00000000000E+000  0.30964155843E-015 -0.30964155533E-015
                    0.93414398785E-001  0.00000000000E+000 -0.51500000000E+002  0.40205806066E+002  0.00000000000E+000  0.00000000000E+000  0.33132812706E-006  0.77554439324E-011  0.00000000000E+000  0.00000000000E+000 -0.10625004460E-014  0.10625004479E-014
                    0.93414398785E-001  0.00000000000E+000 -0.52500000000E+002  0.40191716571E+002  0.00000000000E+000  0.00000000000E+000  0.35540881439E-006  0.49749426780E-011  0.00000000000E+000  0.00000000000E+000 -0.18653228791E-016  0.18653232241E-016
                    0.93414398785E-001  0.00000000000E+000 -0.53500000000E+002  0.40185384583E+002  0.00000000000E+000  0.00000000000E+000  0.35587167579E-006  0.38701704922E-011  0.00000000000E+000  0.00000000000E+000  0.29178921893E-016 -0.29178918724E-016
                    0.93414398785E-001  0.00000000000E+000 -0.54500000000E+002  0.40192621790E+002  0.00000000000E+000  0.00000000000E+000  0.34809728769E-006  0.35321585310E-011  0.00000000000E+000  0.00000000000E+000  0.10721862597E-018 -0.10722129356E-018
                    0.93414398785E-001  0.00000000000E+000 -0.55500000000E+002  0.40175518102E+002  0.00000000000E+000  0.00000000000E+000  0.33617760947E-006  0.33682676333E-011  0.00000000000E+000  0.00000000000E+000 -0.10172823027E-018  0.10171896992E-018
                    0.93414398785E-001  0.00000000000E+000 -0.56500000000E+002  0.40119169835E+002  0.00000000000E+000  0.00000000000E+000  0.28123237295E-006  0.28130249864E-011  0.00000000000E+000  0.00000000000E+000 -0.10221698210E-018  0.10222667736E-018
                    0.93414398785E-001  0.00000000000E+000 -0.57750000000E+002  0.40209051403E+002  0.00000000000E+000  0.00000000000E+000  0.45560323478E-006  0.45561370486E-011  0.00000000000E+000  0.00000000000E+000  0.00000000000E+000  0.22487833552E-024
                    0.93414398785E-001  0.00000000000E+000 -0.59750000000E+002  0.40240995510E+002  0.00000000000E+000  0.00000000000E+000  0.77786996499E-006  0.77787793636E-011  0.00000000000E+000  0.00000000000E+000  0.00000000000E+000  0.33562860462E-024
                    0.93414398785E-001  0.00000000000E+000 -0.63500000000E+002  0.11184912789E+003  0.00000000000E+000  0.00000000000E+000  0.13978026940E-005  0.13978166368E-010  0.00000000000E+000  0.00000000000E+000  0.00000000000E+000 -0.36789251720E-023
                    0.93414398785E-001  0.00000000000E+000 -0.68500000000E+002  0.11181478072E+003  0.00000000000E+000  0.00000000000E+000  0.12172780073E-005  0.12172901494E-010  0.00000000000E+000  0.00000000000E+000  0.00000000000E+000 -0.28747474672E-023
                    0.93414398785E-001  0.00000000000E+000 -0.76000000000E+002  0.16175535069E+003  0.00000000000E+000  0.00000000000E+000  0.20392590932E-005  0.20392794345E-010  0.00000000000E+000  0.00000000000E+000  0.00000000000E+000 -0.14052674431E-023
                    0.93414398785E-001  0.00000000000E+000 -0.86000000000E+002  0.16470987586E+003  0.00000000000E+000  0.00000000000E+000  0.13929625182E-005  0.13929764128E-010  0.00000000000E+000  0.00000000000E+000  0.00000000000E+000 -0.10600998134E-023