 VARIABLES       =                 X                 Y                 Z              ROCK              PRES              TEMP             SAT_G             SAT_L         X_WATER_G           X_AIR_G         X_WATER_L           X_AIR_L             REL_G             REL_L           PCAP_GL             DEN_G             DEN_L               POR
 ZONE T=" 0.1558500E+06 SEC"  I =        9 J =        0 K =       30
                    0.37500000000E-001  0.00000000000E+000 -0.15000000000E+001                   2  0.99181402525E+005  0.62713994982E+001  0.49997903533E+000  0.50002096467E+000  0.59977384117E-002  0.99400226159E+000  0.99998421015E+000  0.15789854011E-004  0.18747379519E+000  0.61125124890E-001  0.00000000000E+000  0.12318356583E+001  0.99999743443E+003  0.10000292194E-002
                    0.37500000000E-001  0.00000000000E+000 -0.27500000000E+001                   2  0.10032034150E+006  0.91712736109E+001  0.49981976285E+000  0.50018023715E+000  0.72327823379E-002  0.99276721766E+000  0.99998406055E+000  0.15939449413E-004  0.18727477970E+000  0.61201170580E-001  0.00000000000E+000  0.12322646808E+001  0.99985694936E+003  0.10000292154E-002
                    0.37500000000E-001  0.00000000000E+000 -0.47500000000E+001                   2  0.10142478338E+006  0.11633276190E+002  0.49979400769E+000  0.50020599231E+000  0.84391369482E-002  0.99156086305E+000  0.99998391635E+000  0.16083650484E-004  0.18724260907E+000  0.61213473780E-001  0.00000000000E+000  0.12341629633E+001  0.99964111509E+003  0.10000220146E-002
                    0.37500000000E-001  0.00000000000E+000 -0.85000000000E+001                   2  0.10280072463E+006  0.13587166093E+002  0.49972153695E+000  0.50027846305E+000  0.94716294908E-002  0.99052837051E+000  0.99998372525E+000  0.16274750018E-004  0.18715210292E+000  0.61248102255E-001  0.00000000000E+000  0.12416099702E+001  0.99941132174E+003  0.10000149187E-002
                    0.37500000000E-001  0.00000000000E+000 -0.13500000000E+002                   2  0.10390829324E+006  0.12431452396E+002  0.49985701333E+000  0.50014298667E+000  0.86839411750E-002  0.99131605883E+000  0.99998352902E+000  0.16470982501E-004  0.18732131458E+000  0.61183379151E-001  0.00000000000E+000  0.12606634771E+001  0.99955422769E+003  0.10000149276E-002
                    0.37500000000E-001  0.00000000000E+000 -0.18500000000E+002                   2  0.10605929590E+006  0.12771484857E+002  0.49993236545E+000  0.50006763455E+000  0.86999734720E-002  0.99130002653E+000  0.99998318849E+000  0.16811514292E-004  0.18741546753E+000  0.61147400861E-001  0.00000000000E+000  0.12852179617E+001  0.99951514827E+003  0.10000149388E-002
                    0.37500000000E-001  0.00000000000E+000 -0.23500000000E+002                   2  0.10935621985E+006  0.12605726496E+002  0.50005926432E+000  0.49994073568E+000  0.83446295342E-002  0.99165537047E+000  0.99998265596E+000  0.17344036613E-004  0.18757408863E+000  0.61086844150E-001  0.00000000000E+000  0.13262225840E+001  0.99953642000E+003  0.10000149511E-002
                    0.37500000000E-001  0.00000000000E+000 -0.28500000000E+002                   2  0.20707431354E+006  0.13929282653E+002  0.50171138003E+000  0.49828861997E+000  0.47944107364E-002  0.99520558926E+000  0.99996696962E+000  0.33030378071E-004  0.18964608944E+000  0.60302281103E-001  0.00000000000E+000  0.25050904334E+001  0.99941431379E+003  0.10010740851E-002
                    0.37500000000E-001  0.00000000000E+000 -0.33500000000E+002                   2  0.13442377047E+006  0.13798486395E+002  0.50048551614E+000  0.49951448386E+000  0.73343046906E-002  0.99266569531E+000  0.99997864550E+000  0.21354496114E-004  0.18810744766E+000  0.60883742864E-001  0.00000000000E+000  0.16244448904E+001  0.99939812152E+003  0.10003523913E-002
                    0.37500000000E-001  0.00000000000E+000 -0.38500000000E+002                   2  0.17224741797E+006  0.13905496376E+002  0.50099382380E+000  0.49900617620E+000  0.57582486337E-002  0.99424175137E+000  0.99997256738E+000  0.27432616172E-004  0.18874459464E+000  0.60642163238E-001  0.00000000000E+000  0.20827299741E+001  0.99940134459E+003  0.10007369893E-002
                    0.37500000000E-001  0.00000000000E+000 -0.42250000000E+002                   2  0.19418895544E+006  0.14756523404E+002  0.50128660745E+000  0.49871339255E+000  0.53958742874E-002  0.99460412571E+000  0.99996905490E+000  0.30945101899E-004  0.18911213906E+000  0.60503319706E-001  0.00000000000E+000  0.23416087687E+001  0.99929215010E+003  0.10009488883E-002
                    0.37500000000E-001  0.00000000000E+000 -0.44250000000E+002                   2  0.20215769511E+006  0.13655168983E+002  0.50164716863E+000  0.49835283137E+000  0.48243184860E-002  0.99517568151E+000  0.99996775542E+000  0.32244584288E-004  0.18956531975E+000  0.60332641308E-001  0.00000000000E+000  0.24479043645E+001  0.99944862413E+003  0.10010404769E-002
                    0.37500000000E-001  0.00000000000E+000 -0.45500000000E+002                   2  0.20688923876E+006  0.12291585061E+002  0.50193237484E+000  0.49806762516E+000  0.43100919089E-002  0.99568990809E+000  0.99996697343E+000  0.33026569496E-004  0.18992422025E+000  0.60197872993E-001  0.00000000000E+000  0.25179473084E+001  0.99961846041E+003  0.10011021636E-002
                    0.37500000000E-001  0.00000000000E+000 -0.46500000000E+002                   2  0.21176616717E+006  0.12300647165E+002  0.50210021805E+000  0.49789978195E+000  0.42130964060E-002  0.99578690359E+000  0.99996618964E+000  0.33810359532E-004  0.19013561060E+000  0.60118660891E-001  0.00000000000E+000  0.25773713544E+001  0.99961970854E+003  0.10011567633E-002
                    0.37500000000E-001  0.00000000000E+000 -0.47500000000E+002                   2  0.21693722589E+006  0.12330572270E+002  0.50229572563E+000  0.49770427437E+000  0.41205460294E-002  0.99587945397E+000  0.99996535889E+000  0.34641112423E-004  0.19038200937E+000  0.60026485020E-001  0.00000000000E+000  0.26401784731E+001  0.99961870626E+003  0.10012106619E-002
                    0.37500000000E-001  0.00000000000E+000 -0.48500000000E+002                   2  0.22215653900E+006  0.12361631336E+002  0.50248073577E+000  0.49751926423E+000  0.40317519818E-002  0.99596824802E+000  0.99996452040E+000  0.35479603304E-004  0.19061534318E+000  0.59939349670E-001  0.00000000000E+000  0.27035498465E+001  0.99961758367E+003  0.10012645616E-002
                    0.37500000000E-001  0.00000000000E+000 -0.49500000000E+002                   2  0.22721697446E+006  0.12390664942E+002  0.50265525679E+000  0.49734474321E+000  0.39492969695E-002  0.99605070303E+000  0.99996370741E+000  0.36292585333E-004  0.19083559521E+000  0.59857235765E-001  0.00000000000E+000  0.27649899155E+001  0.99961660697E+003  0.10013184611E-002
                    0.37500000000E-001  0.00000000000E+000 -0.50500000000E+002                   2  0.23133474829E+006  0.12409571222E+002  0.50283169151E+000  0.49716830849E+000  0.38836706218E-002  0.99611632938E+000  0.99996304580E+000  0.36954195331E-004  0.19105840754E+000  0.59774301645E-001  0.00000000000E+000  0.28150242201E+001  0.99961634923E+003  0.10013645596E-002
                    0.37500000000E-001  0.00000000000E+000 -0.51500000000E+002                   2  0.13153161504E+006  0.12423681850E+002  0.31982277096E-002  0.99680177229E+000  0.68491117353E-002  0.99315088826E+000  0.99997908862E+000  0.20911376654E-004  0.00000000000E+000  0.97220171518E+000  0.00000000000E+000  0.15976135742E+001  0.99956804506E+003  0.10001986460E-002
                    0.37500000000E-001  0.00000000000E+000 -0.52500000000E+002                   2  0.76027068667E+005  0.12442662064E+002  0.27853099666E-002  0.99721469003E+000  0.11900369628E-001  0.98809963037E+000  0.99998801094E+000  0.11989064530E-004  0.00000000000E+000  0.97513309803E+000  0.00000000000E+000  0.92057374698E+000  0.99953989118E+003  0.99951106547E-003
                    0.37500000000E-001  0.00000000000E+000 -0.53500000000E+002                   2  0.57798715028E+005  0.12471653727E+002  0.27738757718E-002  0.99722612423E+000  0.15719372905E-001  0.98428062710E+000  0.99999094149E+000  0.90585107138E-005  0.00000000000E+000  0.97521544370E+000  0.00000000000E+000  0.69817987140E+000  0.99952800616E+003  0.99922853233E-003
                    0.37500000000E-001  0.00000000000E+000 -0.54500000000E+002                   2  0.53003110321E+005  0.12500666568E+002  0.29588909364E-002  0.99704110906E+000  0.17189501002E-001  0.98281049900E+000  0.99999171280E+000  0.82871982867E-005  0.00000000000E+000  0.97389102112E+000  0.00000000000E+000  0.63962166098E+000  0.99952239053E+003  0.99907941433E-003
                    0.37500000000E-001  0.00000000000E+000 -0.55500000000E+002                   2  0.51728659572E+005  0.12530645800E+002  0.31467697909E-002  0.99685323021E+000  0.17652630494E-001  0.98234736951E+000  0.99999191812E+000  0.80818779573E-005  0.00000000000E+000  0.97256274427E+000  0.00000000000E+000  0.62400319078E+000  0.99951829768E+003  0.99896858479E-003
                    0.37500000000E-001  0.00000000000E+000 -0.56500000000E+002                   2  0.51088847699E+005  0.12589677690E+002  0.33432273877E-002  0.99665677261E+000  0.17946292987E-001  0.98205370701E+000  0.99999202187E+000  0.79781257691E-005  0.00000000000E+000  0.97119051262E+000  0.00000000000E+000  0.61604934393E+000  0.99951107816E+003  0.99886334518E-003
                    0.37500000000E-001  0.00000000000E+000 -0.57750000000E+002                   2  0.50751065411E+005  0.14036456560E+002  0.35061695844E-002  0.99649383042E+000  0.19878353882E-001  0.98012164612E+000  0.99999209935E+000  0.79006453416E-005  0.00000000000E+000  0.97006451476E+000  0.00000000000E+000  0.60818965556E+000  0.99932713830E+003  0.99882284161E-003
                    0.37500000000E-001  0.00000000000E+000 -0.59750000000E+002                   2  0.50849990152E+005  0.15242826609E+002  0.34783656442E-002  0.99652163436E+000  0.21468385837E-001  0.97853161416E+000  0.99999210430E+000  0.78956978521E-005  0.00000000000E+000  0.97025590206E+000  0.00000000000E+000  0.60624979262E+000  0.99915362339E+003  0.99865171773E-003
                    0.37500000000E-001  0.00000000000E+000 -0.63500000000E+002                   2  0.50535335484E+005  0.14540524112E+002  0.35422850444E-002  0.99645771496E+000  0.20635286936E-001  0.97936471306E+000  0.99999214257E+000  0.78574294678E-005  0.00000000000E+000  0.96981636580E+000  0.00000000000E+000  0.60426977638E+000  0.99925672579E+003  0.99828954678E-003
                    0.37500000000E-001  0.00000000000E+000 -0.68500000000E+002                   2  0.50999978649E+005  0.14649516284E+002  0.34583659949E-002  0.99654163401E+000  0.20591294969E-001  0.97940870503E+000  0.99999206976E+000  0.79302399626E-005  0.00000000000E+000  0.97039375709E+000  0.00000000000E+000  0.60961088437E+000  0.99924131888E+003  0.99780630650E-003
                    0.37500000000E-001  0.00000000000E+000 -0.76000000000E+002                   2  0.52596184781E+005  0.15439551066E+002  0.28736341314E-002  0.99712636587E+000  0.21013960744E-001  0.97898603926E+000  0.99999182715E+000  0.81728530298E-005  0.00000000000E+000  0.97449923424E+000  0.00000000000E+000  0.62681160831E+000  0.99912441944E+003  0.99708768137E-003
                    0.37500000000E-001  0.00000000000E+000 -0.86000000000E+002                   2  0.54706710384E+005  0.15592434931E+002  0.22442286204E-002  0.99775577138E+000  0.20394889193E-001  0.97960511081E+000  0.99999149067E+000  0.85093335354E-005  0.00000000000E+000  0.97910906677E+000  0.00000000000E+000  0.65186008374E+000  0.99910174449E+003  0.99613191003E-003
                    0.37500000000E-001  0.00000000000E+000 -0.93500000000E+002                   2  0.56005381508E+005  0.15638448384E+002  0.19229880442E-002  0.99807701196E+000  0.19975818323E-001  0.98002418168E+000  0.99999128275E+000  0.87172482168E-005  0.00000000000E+000  0.98155760728E+000  0.00000000000E+000  0.66739559423E+000  0.99909517037E+003  0.99541513311E-003
                    0.37500000000E-001  0.00000000000E+000 -0.97500000000E+002                   2  0.55387159971E+005  0.14348718822E+002  0.19393931969E-002  0.99806060680E+000  0.18572467562E-001  0.98142753244E+000  0.99999135939E+000  0.86406138597E-005  0.00000000000E+000  0.98143072740E+000  0.00000000000E+000  0.66354589390E+000  0.99928610815E+003  0.99501302438E-003
                    0.37500000000E-001  0.00000000000E+000 -0.10000000000E+003                   2  0.54012978453E+005  0.12724665081E+002  0.23953983327E-002  0.99760460167E+000  0.17117248409E-001  0.98288275159E+000  0.99999155392E+000  0.84460827070E-005  0.00000000000E+000  0.97798097916E+000  0.00000000000E+000  0.65132603006E+000  0.99949644687E+003  0.99472546800E-003
                    0.37500000000E-001  0.00000000000E+000 -0.10200000000E+003                   1  0.10394477929E+007  0.17611434036E+002  0.00000000000E+000  0.10000000000E+001  0.00000000000E+000  0.00000000000E+000  0.99999000000E+000  0.99999997474E-005  0.00000000000E+000  0.10000000000E+001  0.00000000000E+000  0.12442504540E+002  0.99921400861E+003  0.30131862979E+000
                    0.37500000000E-001  0.00000000000E+000 -0.10500000000E+003                   1  0.10462897765E+007  0.17756440374E+002  0.00000000000E+000  0.10000000000E+001  0.00000000000E+000  0.00000000000E+000  0.99999000000E+000  0.99999997474E-005  0.00000000000E+000  0.10000000000E+001  0.00000000000E+000  0.12518138631E+002  0.99919075319E+003  0.30125124050E+000
                    0.37500000000E-001  0.00000000000E+000 -0.11100000000E+003                   1  0.10587365767E+007  0.17880167852E+002  0.00000000000E+000  0.10000000000E+001  0.00000000000E+000  0.00000000000E+000  0.99999000000E+000  0.99999997474E-005  0.00000000000E+000  0.10000000000E+001  0.00000000000E+000  0.12661708258E+002  0.99917373749E+003  0.30110800039E+000
                    0.37500000000E-001  0.00000000000E+000 -0.12300000000E+003                   1  0.10877155344E+007  0.18128027843E+002  0.00000000000E+000  0.10000000000E+001  0.00000000000E+000  0.00000000000E+000  0.99999000000E+000  0.99999997474E-005  0.00000000000E+000  0.10000000000E+001  0.00000000000E+000  0.12997313803E+002  0.99914095789E+003  0.30083978002E+000
                    0.37500000000E-001  0.00000000000E+000 -0.14700000000E+003                   1  0.11748849070E+007  0.18628205919E+002  0.00000000000E+000  0.10000000000E+001  0.00000000000E+000  0.00000000000E+000  0.99999000000E+000  0.99999997474E-005  0.00000000000E+000  0.10000000000E+001  0.00000000000E+000  0.14015303036E+002  0.99908569895E+003  0.30039842407E+000
                    0.37500000000E-001  0.00000000000E+000 -0.19500000000E+003                   3  0.17239717465E+007  0.19625000000E+002  0.00000000000E+000  0.10000000000E+001  0.00000000000E+000  0.00000000000E+000  0.99999000000E+000  0.99999997474E-005  0.00000000000E+000  0.10000000000E+001  0.00000000000E+000  0.20499272522E+002  0.99913720004E+003  0.30063500999E+000
                    0.37500000000E-001  0.00000000000E+000 -0.50000000000E-005                   5  0.10132500000E+006  0.15000000000E+002  0.10000000000E+001  0.00000000000E+000  0.52499771120E-002  0.99475002289E+000  0.00000000000E+000  0.00000000000E+000  0.10000000000E+001  0.00000000000E+000  0.00000000000E+000  0.12208885817E+001  0.99921336741E+003  0.99000001000E+000
                    0.37500000000E-001  0.00000000000E+000 -0.25000000000E+000                   4  0.10168402270E+006  0.15012848311E+002  0.89206030659E+000  0.10793969341E+000  0.10508769146E-001  0.98949123085E+000  0.99998392892E+000  0.16071076728E-004  0.98015271188E+000  0.43964152216E-006 -0.17542934544E+006  0.12212843045E+001  0.99921162514E+003  0.30000001019E+000
                    0.37500000000E-001  0.00000000000E+000 -0.75000000000E+000                   4  0.10152710932E+006  0.14885902302E+002  0.89610577408E+000  0.10389422592E+000  0.10438802455E-001  0.98956119754E+000  0.99998395191E+000  0.16048086239E-004  0.99026466532E+000  0.51857586999E-007 -0.19005711004E+006  0.12199884061E+001  0.99923031861E+003  0.30000007028E+000
                    0.79290000000E-001  0.00000000000E+000 -0.25000000000E+000                   1  0.10138607351E+006  0.15010029534E+002  0.89664091287E+000  0.10335908713E+000  0.10537923086E-001  0.98946207691E+000  0.99998397677E+000  0.16023232911E-004  0.99160242993E+000  0.33281002986E-007 -0.19214386719E+006  0.12176962909E+001  0.99921190614E+003  0.30000001015E+000
                    0.79290000000E-001  0.00000000000E+000 -0.75000000000E+000                   1  0.10149910755E+006  0.14871814303E+002  0.89606760856E+000  0.10393239144E+000  0.10432158074E-001  0.98956784193E+000  0.99998395617E+000  0.16043831879E-004  0.99016925836E+000  0.53397421137E-007 -0.18990972545E+006  0.12197164519E+001  0.99923237595E+003  0.30000007044E+000
                    0.79290000000E-001  0.00000000000E+000 -0.15000000000E+001                   1  0.10166454998E+006  0.65971532022E+001  0.89300285954E+000  0.10699714046E+000  0.59841141985E-002  0.99401588580E+000  0.99998381447E+000  0.16185529651E-004  0.98250848119E+000  0.30089495511E-006 -0.17866632340E+006  0.12612165842E+001  0.99998924895E+003  0.30000004085E+000
                    0.79290000000E-001  0.00000000000E+000 -0.27500000000E+001                   1  0.10195231059E+006  0.93887876201E+001  0.89171752959E+000  0.10828247041E+000  0.72220711281E-002  0.99277792887E+000  0.99998380098E+000  0.16199024973E-004  0.97929603189E+000  0.49909124340E-006 -0.17427625890E+006  0.12513547437E+001  0.99984206982E+003  0.30000010156E+000
                    0.79290000000E-001  0.00000000000E+000 -0.47500000000E+001                   1  0.10242547364E+006  0.11764045461E+002  0.89072190606E+000  0.10927809394E+000  0.84292089300E-002  0.99157079107E+000  0.99998375740E+000  0.16242597044E-004  0.97680786693E+000  0.70164008423E-006 -0.17099747868E+006  0.12457751198E+001  0.99962774461E+003  0.30000019273E+000
                    0.79290000000E-001  0.00000000000E+000 -0.85000000000E+001                   1  0.10338098242E+006  0.13652359323E+002  0.88862183170E+000  0.11137816830E+000  0.94584684133E-002  0.99054153159E+000  0.99998363304E+000  0.16366960060E-004  0.97156029241E+000  0.12943098876E-005 -0.16440838493E+006  0.12483443536E+001  0.99940304444E+003  0.30000031492E+000
                    0.79290000000E-001  0.00000000000E+000 -0.13500000000E+002                   1  0.10499368677E+006  0.12550673665E+002  0.88117368894E+000  0.11882631106E+000  0.86616450857E-002  0.99133835491E+000  0.99998335637E+000  0.16643631305E-004  0.95295998053E+000  0.58673372468E-005 -0.14412624473E+006  0.12733176114E+001  0.99954085439E+003  0.30000049804E+000
                    0.79290000000E-001  0.00000000000E+000 -0.18500000000E+002                   1  0.10722658228E+006  0.12885301524E+002  0.86016339019E+000  0.13983660981E+000  0.86695330782E-002  0.99133046692E+000  0.99998300262E+000  0.16997375239E-004  0.90064927590E+000  0.55728285364E-004 -0.10470567048E+006  0.12988699340E+001  0.99950193630E+003  0.30000071143E+000
                    0.79290000000E-001  0.00000000000E+000 -0.23500000000E+002                   1  0.11081163054E+006  0.12730416551E+002  0.77390057618E+000  0.22609942382E+000  0.83024754577E-002  0.99169752454E+000  0.99998242394E+000  0.17576060164E-004  0.69196662672E+000  0.17917251512E-002 -0.43518117399E+005  0.13433212388E+001  0.99952229012E+003  0.30002002628E+000
                    0.79290000000E-001  0.00000000000E+000 -0.28500000000E+002                   1  0.22844983071E+006  0.14008465738E+002  0.15968432102E+000  0.84031567898E+000  0.43670894887E-002  0.99563291051E+000  0.99996353500E+000  0.36464999782E-004  0.79952226256E-003  0.45186605118E+000 -0.28482775724E+004  0.27636334051E+001  0.99941349183E+003  0.30038032720E+000
                    0.79290000000E-001  0.00000000000E+000 -0.33500000000E+002                   1  0.39479471422E+006  0.13887169763E+002  0.24804856388E-001  0.97519514361E+000  0.25043794238E-002  0.99749562058E+000  0.99993679472E+000  0.63205282889E-004  0.00000000000E+000  0.85770321128E+000 -0.78946703558E+003  0.47833671599E+001  0.99950721341E+003  0.30088055714E+000
                    0.79290000000E-001  0.00000000000E+000 -0.38500000000E+002                   1  0.51103871331E+006  0.13994010644E+002  0.19527538685E-001  0.98047246131E+000  0.19475372467E-002  0.99805246275E+000  0.99991811176E+000  0.81888242522E-004  0.00000000000E+000  0.88201208266E+000 -0.67990281662E+003  0.61915724481E+001  0.99954667593E+003  0.30122926152E+000
                    0.79290000000E-001  0.00000000000E+000 -0.42250000000E+002                   1  0.57243936945E+006  0.14819207906E+002  0.14987711640E-001  0.98501228836E+000  0.18339110928E-002  0.99816608891E+000  0.99990825657E+000  0.91743433015E-004  0.00000000000E+000  0.90424539209E+000 -0.57718746136E+003  0.69160843739E+001  0.99945803876E+003  0.30141355298E+000
                    0.79290000000E-001  0.00000000000E+000 -0.44250000000E+002                   1  0.60348418179E+006  0.13758622013E+002  0.12346724921E-001  0.98765327508E+000  0.16238419242E-002  0.99837615808E+000  0.99990324863E+000  0.96751373291E-004  0.00000000000E+000  0.91789587902E+000 -0.51232197118E+003  0.73190433251E+001  0.99962144534E+003  0.30150885200E+000
                    0.79290000000E-001  0.00000000000E+000 -0.45500000000E+002                   1  0.62256903924E+006  0.12446077270E+002  0.10790156298E-001  0.98920984370E+000  0.14444313347E-002  0.99855556867E+000  0.99990016026E+000  0.99839737303E-004  0.00000000000E+000  0.92624687636E+000 -0.47172157786E+003  0.75860279977E+001  0.99979497213E+003  0.30156637269E+000
                    0.79290000000E-001  0.00000000000E+000 -0.46500000000E+002                   1  0.63777050983E+006  0.12455382743E+002  0.98964759997E-002  0.99010352400E+000  0.14108368489E-002  0.99858916315E+000  0.99989771702E+000  0.10228298446E-003  0.00000000000E+000  0.93116056360E+000 -0.44743674807E+003  0.77711634441E+001  0.99980098543E+003  0.30161134371E+000
                    0.79290000000E-001  0.00000000000E+000 -0.47500000000E+002                   1  0.65295862371E+006  0.12485113112E+002  0.92688932475E-002  0.99073110675E+000  0.13806901386E-002  0.99861930986E+000  0.99989527623E+000  0.10472376838E-003  0.00000000000E+000  0.93466882915E+000 -0.42989393169E+003  0.79555461038E+001  0.99980459371E+003  0.30165694498E+000
                    0.79290000000E-001  0.00000000000E+000 -0.48500000000E+002                   1  0.66810493906E+006  0.12516263157E+002  0.88120210686E-002  0.99118797893E+000  0.13521304255E-002  0.99864786957E+000  0.99989284219E+000  0.10715780690E-003  0.00000000000E+000  0.93725501884E+000 -0.41684307711E+003  0.81393396506E+001  0.99980800137E+003  0.30170322611E+000
                    0.79290000000E-001  0.00000000000E+000 -0.49500000000E+002                   1  0.68310438959E+006  0.12545344136E+002  0.83322712867E-002  0.99166772871E+000  0.13249475819E-002  0.99867505242E+000  0.99989043173E+000  0.10956826582E-003  0.00000000000E+000  0.94000182661E+000 -0.40286289169E+003  0.83213637808E+001  0.99981157042E+003  0.30174429670E+000
                    0.79290000000E-001  0.00000000000E+000 -0.50500000000E+002                   1  0.69760047660E+006  0.12563795999E+002  0.41714173072E-002  0.99582858269E+000  0.12989681058E-002  0.99870103189E+000  0.99988810202E+000  0.11189797590E-003  0.00000000000E+000  0.96556964385E+000 -0.26478748977E+003  0.84975354979E+001  0.99981615282E+003  0.30178706657E+000
                    0.79290000000E-001  0.00000000000E+000 -0.51500000000E+002                   1  0.71147264741E+006  0.12578427139E+002  0.00000000000E+000  0.10000000000E+001  0.00000000000E+000  0.00000000000E+000  0.99997662424E+000  0.23375761245E-004  0.00000000000E+000  0.10000000000E+001  0.00000000000E+000  0.86661965385E+001  0.99982089231E+003  0.30181594651E+000
                    0.79290000000E-001  0.00000000000E+000 -0.52500000000E+002                   1  0.72520768164E+006  0.12597356116E+002  0.00000000000E+000  0.10000000000E+001  0.00000000000E+000  0.00000000000E+000  0.99998600418E+000  0.13995821344E-004  0.00000000000E+000  0.10000000000E+001  0.00000000000E+000  0.88330339379E+001  0.99982505218E+003  0.30183060623E+000
                    0.79290000000E-001  0.00000000000E+000 -0.53500000000E+002                   1  0.73851054272E+006  0.12626327363E+002  0.00000000000E+000  0.10000000000E+001  0.00000000000E+000  0.00000000000E+000  0.99998912470E+000  0.10875302428E-004  0.00000000000E+000  0.10000000000E+001  0.00000000000E+000  0.89942612150E+001  0.99982780486E+003  0.30184130637E+000
                    0.79290000000E-001  0.00000000000E+000 -0.54500000000E+002                   1  0.75138143310E+006  0.12655373425E+002  0.00000000000E+000  0.10000000000E+001  0.00000000000E+000  0.00000000000E+000  0.99998985311E+000  0.10146892082E-004  0.00000000000E+000  0.10000000000E+001  0.00000000000E+000  0.91501890240E+001  0.99983033425E+003  0.30185069641E+000
                    0.79290000000E-001  0.00000000000E+000 -0.55500000000E+002                   1  0.76383072705E+006  0.12685294436E+002  0.00000000000E+000  0.10000000000E+001  0.00000000000E+000  0.00000000000E+000  0.99998998079E+000  0.10019207612E-004  0.00000000000E+000  0.10000000000E+001  0.00000000000E+000  0.93009188843E+001  0.99983254893E+003  0.30185858673E+000
                    0.79290000000E-001  0.00000000000E+000 -0.56500000000E+002                   1  0.77587221801E+006  0.12744235318E+002  0.00000000000E+000  0.10000000000E+001  0.00000000000E+000  0.00000000000E+000  0.99998999761E+000  0.10002392514E-004  0.00000000000E+000  0.10000000000E+001  0.00000000000E+000  0.94456766692E+001  0.99983105020E+003  0.30186434708E+000
                    0.79290000000E-001  0.00000000000E+000 -0.57750000000E+002                   1  0.79042053914E+006  0.14139674706E+002  0.00000000000E+000  0.10000000000E+001  0.00000000000E+000  0.00000000000E+000  0.99998999987E+000  0.10000129759E-004  0.00000000000E+000  0.10000000000E+001  0.00000000000E+000  0.95755371862E+001  0.99965621335E+003  0.30187065786E+000
                    0.79290000000E-001  0.00000000000E+000 -0.59750000000E+002                   1  0.81254685436E+006  0.15304671007E+002  0.00000000000E+000  0.10000000000E+001  0.00000000000E+000  0.00000000000E+000  0.99999000000E+000  0.10000002431E-004  0.00000000000E+000  0.10000000000E+001  0.00000000000E+000  0.98034630991E+001  0.99949601661E+003  0.30187778919E+000
                    0.79290000000E-001  0.00000000000E+000 -0.63500000000E+002                   1  0.85064169193E+006  0.14625734645E+002  0.00000000000E+000  0.10000000000E+001  0.00000000000E+000  0.00000000000E+000  0.99999000000E+000  0.99999997021E-005  0.00000000000E+000  0.10000000000E+001  0.00000000000E+000  0.10288005812E+002  0.99961502426E+003  0.30188673303E+000
                    0.79290000000E-001  0.00000000000E+000 -0.68500000000E+002                   1  0.89315267747E+006  0.14734710300E+002  0.00000000000E+000  0.10000000000E+001  0.00000000000E+000  0.00000000000E+000  0.99999000000E+000  0.99999997036E-005  0.00000000000E+000  0.10000000000E+001  0.00000000000E+000  0.10798387850E+002  0.99961878683E+003  0.30186608016E+000
                    0.79290000000E-001  0.00000000000E+000 -0.76000000000E+002                   1  0.94619801009E+006  0.15501178238E+002  0.00000000000E+000  0.10000000000E+001  0.00000000000E+000  0.00000000000E+000  0.99999000000E+000  0.99999997086E-005  0.00000000000E+000  0.10000000000E+001  0.00000000000E+000  0.11409407684E+002  0.99952724487E+003  0.30179808364E+000
                    0.79290000000E-001  0.00000000000E+000 -0.86000000000E+002                   1  0.99376463308E+006  0.15655221825E+002  0.00000000000E+000  0.10000000000E+001  0.00000000000E+000  0.00000000000E+000  0.99999000000E+000  0.99999997156E-005  0.00000000000E+000  0.10000000000E+001  0.00000000000E+000  0.11976905370E+002  0.99952496895E+003  0.30165240573E+000
                    0.79290000000E-001  0.00000000000E+000 -0.93500000000E+002                   1  0.10178132981E+007  0.15708046766E+002  0.00000000000E+000  0.10000000000E+001  0.00000000000E+000  0.00000000000E+000  0.99999000000E+000  0.99999997200E-005  0.00000000000E+000  0.10000000000E+001  0.00000000000E+000  0.12264666213E+002  0.99952767964E+003  0.30150815227E+000
                    0.79290000000E-001  0.00000000000E+000 -0.97500000000E+002                   1  0.10286328445E+007  0.14464702624E+002  0.00000000000E+000  0.10000000000E+001  0.00000000000E+000  0.00000000000E+000  0.99999000000E+000  0.99999997183E-005  0.00000000000E+000  0.10000000000E+001  0.00000000000E+000  0.12449337553E+002  0.99972064354E+003  0.30141565109E+000
                    0.79290000000E-001  0.00000000000E+000 -0.10000000000E+003                   1  0.10348183925E+007  0.12898618743E+002  0.00000000000E+000  0.10000000000E+001  0.00000000000E+000  0.00000000000E+000  0.99999000000E+000  0.99999997143E-005  0.00000000000E+000  0.10000000000E+001  0.00000000000E+000  0.12593546074E+002  0.99993286890E+003  0.30136052651E+000
                    0.79290000000E-001  0.00000000000E+000 -0.10200000000E+003                   1  0.10394536731E+007  0.17611870824E+002  0.00000000000E+000  0.10000000000E+001  0.00000000000E+000  0.00000000000E+000  0.99999000000E+000  0.99999997474E-005  0.00000000000E+000  0.10000000000E+001  0.00000000000E+000  0.12442556037E+002  0.99921393220E+003  0.30131868981E+000