Program Version,EnergyPlus, Version 9.6.0-f420c06a69, YMD=2024.09.02 12:50
1,5,Environment Title[],Latitude[deg],Longitude[deg],Time Zone[],Elevation[m]
2,8,Day of Simulation[],Month[],Day of Month[],DST Indicator[1=yes 0=no],Hour[],StartMinute[],EndMinute[],DayType
3,5,Cumulative Day of Simulation[],Month[],Day of Month[],DST Indicator[1=yes 0=no],DayType  ! When Daily Report Variables Requested
4,2,Cumulative Days of Simulation[],Month[]  ! When Monthly Report Variables Requested
5,1,Cumulative Days of Simulation[] ! When Run Period Report Variables Requested
6,1,Calendar Year of Simulation[] ! When Annual Report Variables Requested
7,1,Environment,Site Outdoor Air Drybulb Temperature [C] !Hourly
450,1,HPWHDXCOIL,Cooling Coil Total Cooling Rate [W] !Hourly
488,1,HPWHDXCOIL,Cooling Coil Crankcase Heater Electricity Rate [W] !Hourly
514,1,HPWHDXCOIL,Cooling Coil Total Water Heating Rate [W] !Hourly
515,1,HPWHDXCOIL,Cooling Coil Water Heating Electricity Rate [W] !Hourly
517,1,ZONE4HPWHDXCOIL,Cooling Coil Total Cooling Rate [W] !Hourly
519,1,ZONE4HPWHDXCOIL,Cooling Coil Crankcase Heater Electricity Rate [W] !Hourly
521,1,ZONE4HPWHDXCOIL,Cooling Coil Total Water Heating Rate [W] !Hourly
522,1,ZONE4HPWHDXCOIL,Cooling Coil Water Heating Electricity Rate [W] !Hourly
524,1,ZONE4BHPWHDXCOIL,Cooling Coil Total Cooling Rate [W] !Hourly
526,1,ZONE4BHPWHDXCOIL,Cooling Coil Crankcase Heater Electricity Rate [W] !Hourly
528,1,ZONE4BHPWHDXCOIL,Cooling Coil Total Water Heating Rate [W] !Hourly
529,1,ZONE4BHPWHDXCOIL,Cooling Coil Water Heating Electricity Rate [W] !Hourly
531,1,HPWHOUTDOORDXCOIL,Cooling Coil Total Cooling Rate [W] !Hourly
533,1,HPWHOUTDOORDXCOIL,Cooling Coil Crankcase Heater Electricity Rate [W] !Hourly
535,1,HPWHOUTDOORDXCOIL,Cooling Coil Total Water Heating Rate [W] !Hourly
536,1,HPWHOUTDOORDXCOIL,Cooling Coil Water Heating Electricity Rate [W] !Hourly
538,1,HPWHSCHEDULEDDXCOIL,Cooling Coil Total Cooling Rate [W] !Hourly
540,1,HPWHSCHEDULEDDXCOIL,Cooling Coil Crankcase Heater Electricity Rate [W] !Hourly
542,1,HPWHSCHEDULEDDXCOIL,Cooling Coil Total Water Heating Rate [W] !Hourly
543,1,HPWHSCHEDULEDDXCOIL,Cooling Coil Water Heating Electricity Rate [W] !Hourly
545,1,HPWHPLANTDXCOIL,Cooling Coil Total Cooling Rate [W] !Hourly
547,1,HPWHPLANTDXCOIL,Cooling Coil Crankcase Heater Electricity Rate [W] !Hourly
549,1,HPWHPLANTDXCOIL,Cooling Coil Total Water Heating Rate [W] !Hourly
550,1,HPWHPLANTDXCOIL,Cooling Coil Water Heating Electricity Rate [W] !Hourly
552,1,SUPPLY FAN 1,Fan Electricity Rate [W] !Hourly
590,1,HPWHFAN,Fan Electricity Rate [W] !Hourly
592,1,ZONE4HPWHFAN,Fan Electricity Rate [W] !Hourly
594,1,ZONE4BHPWHFAN,Fan Electricity Rate [W] !Hourly
596,1,HPWHOUTDOORFAN,Fan Electricity Rate [W] !Hourly
598,1,HPWHSCHEDULEDFAN,Fan Electricity Rate [W] !Hourly
600,1,HPWHPLANTFAN,Fan Electricity Rate [W] !Hourly
724,1,PLENUM-1,Zone Air Temperature [C] !Hourly
787,1,SPACE1-1,Zone Air Temperature [C] !Hourly
850,1,SPACE2-1,Zone Air Temperature [C] !Hourly
913,1,SPACE3-1,Zone Air Temperature [C] !Hourly
976,1,SPACE4-1,Zone Air Temperature [C] !Hourly
1039,1,SPACE5-1,Zone Air Temperature [C] !Hourly
1274,1,SPACE1-1 ZONE COIL,Heating Coil Heating Rate [W] !Hourly
1277,1,SPACE2-1 ZONE COIL,Heating Coil Heating Rate [W] !Hourly
1280,1,SPACE3-1 ZONE COIL,Heating Coil Heating Rate [W] !Hourly
1283,1,SPACE4-1 ZONE COIL,Heating Coil Heating Rate [W] !Hourly
1286,1,SPACE5-1 ZONE COIL,Heating Coil Heating Rate [W] !Hourly
1289,1,MAIN HEATING COIL 1,Heating Coil Heating Rate [W] !Hourly
1328,1,MAIN COOLING COIL 1,Cooling Coil Total Cooling Rate [W] !Hourly
1329,1,ZONE4HPWHTANK,Water Heater Tank Temperature [C] !Hourly
1330,1,ZONE4HPWHTANK,Water Heater Use Side Mass Flow Rate [kg/s] !Hourly
1331,1,ZONE4HPWHTANK,Water Heater Use Side Inlet Temperature [C] !Hourly
1332,1,ZONE4HPWHTANK,Water Heater Use Side Outlet Temperature [C] !Hourly
1333,1,ZONE4HPWHTANK,Water Heater Use Side Heat Transfer Rate [W] !Hourly
1334,1,ZONE4HPWHTANK,Water Heater Source Side Mass Flow Rate [kg/s] !Hourly
1335,1,ZONE4HPWHTANK,Water Heater Source Side Inlet Temperature [C] !Hourly
1336,1,ZONE4HPWHTANK,Water Heater Source Side Outlet Temperature [C] !Hourly
1337,1,ZONE4HPWHTANK,Water Heater Source Side Heat Transfer Rate [W] !Hourly
1339,1,ZONE4HPWHTANK,Water Heater Runtime Fraction [] !Hourly
1340,1,ZONE4HPWHTANK,Water Heater Part Load Ratio [] !Hourly
1341,1,ZONE4HPWHTANK,Water Heater Electricity Rate [W] !Hourly
1455,1,ZONE4HEATPUMPWATERHEATER,Water Heater Compressor Part Load Ratio [] !Hourly
1456,1,ZONE4HEATPUMPWATERHEATER,Water Heater Off Cycle Ancillary Electricity Rate [W] !Hourly
1470,1,ZONE4HEATPUMPWATERHEATER,Water Heater On Cycle Ancillary Electricity Rate [W] !Hourly
1472,1,HPWHTANK,Water Heater Tank Temperature [C] !Hourly
1473,1,HPWHTANK,Water Heater Use Side Mass Flow Rate [kg/s] !Hourly
1474,1,HPWHTANK,Water Heater Use Side Inlet Temperature [C] !Hourly
1475,1,HPWHTANK,Water Heater Use Side Outlet Temperature [C] !Hourly
1476,1,HPWHTANK,Water Heater Use Side Heat Transfer Rate [W] !Hourly
1477,1,HPWHTANK,Water Heater Source Side Mass Flow Rate [kg/s] !Hourly
1478,1,HPWHTANK,Water Heater Source Side Inlet Temperature [C] !Hourly
1479,1,HPWHTANK,Water Heater Source Side Outlet Temperature [C] !Hourly
1480,1,HPWHTANK,Water Heater Source Side Heat Transfer Rate [W] !Hourly
1482,1,HPWHTANK,Water Heater Runtime Fraction [] !Hourly
1483,1,HPWHTANK,Water Heater Part Load Ratio [] !Hourly
1484,1,HPWHTANK,Water Heater Electricity Rate [W] !Hourly
1490,1,ZONE5HEATPUMPWATERHEATER,Water Heater Compressor Part Load Ratio [] !Hourly
1491,1,ZONE5HEATPUMPWATERHEATER,Water Heater Off Cycle Ancillary Electricity Rate [W] !Hourly
1493,1,ZONE5HEATPUMPWATERHEATER,Water Heater On Cycle Ancillary Electricity Rate [W] !Hourly
1495,1,HPWHOUTDOORTANK,Water Heater Tank Temperature [C] !Hourly
1496,1,HPWHOUTDOORTANK,Water Heater Use Side Mass Flow Rate [kg/s] !Hourly
1497,1,HPWHOUTDOORTANK,Water Heater Use Side Inlet Temperature [C] !Hourly
1498,1,HPWHOUTDOORTANK,Water Heater Use Side Outlet Temperature [C] !Hourly
1499,1,HPWHOUTDOORTANK,Water Heater Use Side Heat Transfer Rate [W] !Hourly
1500,1,HPWHOUTDOORTANK,Water Heater Source Side Mass Flow Rate [kg/s] !Hourly
1501,1,HPWHOUTDOORTANK,Water Heater Source Side Inlet Temperature [C] !Hourly
1502,1,HPWHOUTDOORTANK,Water Heater Source Side Outlet Temperature [C] !Hourly
1503,1,HPWHOUTDOORTANK,Water Heater Source Side Heat Transfer Rate [W] !Hourly
1505,1,HPWHOUTDOORTANK,Water Heater Runtime Fraction [] !Hourly
1506,1,HPWHOUTDOORTANK,Water Heater Part Load Ratio [] !Hourly
1507,1,HPWHOUTDOORTANK,Water Heater Electricity Rate [W] !Hourly
1513,1,OUTDOORHEATPUMPWATERHEATER,Water Heater Compressor Part Load Ratio [] !Hourly
1514,1,OUTDOORHEATPUMPWATERHEATER,Water Heater Off Cycle Ancillary Electricity Rate [W] !Hourly
1516,1,OUTDOORHEATPUMPWATERHEATER,Water Heater On Cycle Ancillary Electricity Rate [W] !Hourly
1518,1,HPWHSCHEDULEDTANK,Water Heater Tank Temperature [C] !Hourly
1519,1,HPWHSCHEDULEDTANK,Water Heater Use Side Mass Flow Rate [kg/s] !Hourly
1520,1,HPWHSCHEDULEDTANK,Water Heater Use Side Inlet Temperature [C] !Hourly
1521,1,HPWHSCHEDULEDTANK,Water Heater Use Side Outlet Temperature [C] !Hourly
1522,1,HPWHSCHEDULEDTANK,Water Heater Use Side Heat Transfer Rate [W] !Hourly
1523,1,HPWHSCHEDULEDTANK,Water Heater Source Side Mass Flow Rate [kg/s] !Hourly
1524,1,HPWHSCHEDULEDTANK,Water Heater Source Side Inlet Temperature [C] !Hourly
1525,1,HPWHSCHEDULEDTANK,Water Heater Source Side Outlet Temperature [C] !Hourly
1526,1,HPWHSCHEDULEDTANK,Water Heater Source Side Heat Transfer Rate [W] !Hourly
1528,1,HPWHSCHEDULEDTANK,Water Heater Runtime Fraction [] !Hourly
1529,1,HPWHSCHEDULEDTANK,Water Heater Part Load Ratio [] !Hourly
1530,1,HPWHSCHEDULEDTANK,Water Heater Electricity Rate [W] !Hourly
1536,1,SCHEDULEDHEATPUMPWATERHEATER,Water Heater Compressor Part Load Ratio [] !Hourly
1537,1,SCHEDULEDHEATPUMPWATERHEATER,Water Heater Off Cycle Ancillary Electricity Rate [W] !Hourly
1539,1,SCHEDULEDHEATPUMPWATERHEATER,Water Heater On Cycle Ancillary Electricity Rate [W] !Hourly
1541,1,SCHEDULEDELECTRICTANK,Water Heater Tank Temperature [C] !Hourly
1542,1,SCHEDULEDELECTRICTANK,Water Heater Use Side Mass Flow Rate [kg/s] !Hourly
1543,1,SCHEDULEDELECTRICTANK,Water Heater Use Side Inlet Temperature [C] !Hourly
1544,1,SCHEDULEDELECTRICTANK,Water Heater Use Side Outlet Temperature [C] !Hourly
1545,1,SCHEDULEDELECTRICTANK,Water Heater Use Side Heat Transfer Rate [W] !Hourly
1546,1,SCHEDULEDELECTRICTANK,Water Heater Source Side Mass Flow Rate [kg/s] !Hourly
1547,1,SCHEDULEDELECTRICTANK,Water Heater Source Side Inlet Temperature [C] !Hourly
1548,1,SCHEDULEDELECTRICTANK,Water Heater Source Side Outlet Temperature [C] !Hourly
1549,1,SCHEDULEDELECTRICTANK,Water Heater Source Side Heat Transfer Rate [W] !Hourly
1551,1,SCHEDULEDELECTRICTANK,Water Heater Runtime Fraction [] !Hourly
1552,1,SCHEDULEDELECTRICTANK,Water Heater Part Load Ratio [] !Hourly
1553,1,SCHEDULEDELECTRICTANK,Water Heater Electricity Rate [W] !Hourly
1622,1,HPWHPLANTTANK,Water Heater Tank Temperature [C] !Hourly
1623,1,HPWHPLANTTANK,Water Heater Use Side Mass Flow Rate [kg/s] !Hourly
1624,1,HPWHPLANTTANK,Water Heater Use Side Inlet Temperature [C] !Hourly
1625,1,HPWHPLANTTANK,Water Heater Use Side Outlet Temperature [C] !Hourly
1626,1,HPWHPLANTTANK,Water Heater Use Side Heat Transfer Rate [W] !Hourly
1627,1,HPWHPLANTTANK,Water Heater Source Side Mass Flow Rate [kg/s] !Hourly
1628,1,HPWHPLANTTANK,Water Heater Source Side Inlet Temperature [C] !Hourly
1629,1,HPWHPLANTTANK,Water Heater Source Side Outlet Temperature [C] !Hourly
1630,1,HPWHPLANTTANK,Water Heater Source Side Heat Transfer Rate [W] !Hourly
1632,1,HPWHPLANTTANK,Water Heater Runtime Fraction [] !Hourly
1633,1,HPWHPLANTTANK,Water Heater Part Load Ratio [] !Hourly
1634,1,HPWHPLANTTANK,Water Heater Electricity Rate [W] !Hourly
1640,1,PLANTHEATPUMPWATERHEATER,Water Heater Compressor Part Load Ratio [] !Hourly
1641,1,PLANTHEATPUMPWATERHEATER,Water Heater Off Cycle Ancillary Electricity Rate [W] !Hourly
1643,1,PLANTHEATPUMPWATERHEATER,Water Heater On Cycle Ancillary Electricity Rate [W] !Hourly
1708,1,ZONE4BHPWHTANK,Water Heater Tank Temperature [C] !Hourly
1709,1,ZONE4BHPWHTANK,Water Heater Use Side Mass Flow Rate [kg/s] !Hourly
1710,1,ZONE4BHPWHTANK,Water Heater Use Side Inlet Temperature [C] !Hourly
1711,1,ZONE4BHPWHTANK,Water Heater Use Side Outlet Temperature [C] !Hourly
1712,1,ZONE4BHPWHTANK,Water Heater Use Side Heat Transfer Rate [W] !Hourly
1713,1,ZONE4BHPWHTANK,Water Heater Source Side Mass Flow Rate [kg/s] !Hourly
1714,1,ZONE4BHPWHTANK,Water Heater Source Side Inlet Temperature [C] !Hourly
1715,1,ZONE4BHPWHTANK,Water Heater Source Side Outlet Temperature [C] !Hourly
1716,1,ZONE4BHPWHTANK,Water Heater Source Side Heat Transfer Rate [W] !Hourly
1718,1,ZONE4BHPWHTANK,Water Heater Runtime Fraction [] !Hourly
1719,1,ZONE4BHPWHTANK,Water Heater Part Load Ratio [] !Hourly
1720,1,ZONE4BHPWHTANK,Water Heater Electricity Rate [W] !Hourly
1726,1,ZONE4BHEATPUMPWATERHEATER,Water Heater Compressor Part Load Ratio [] !Hourly
1727,1,ZONE4BHEATPUMPWATERHEATER,Water Heater Off Cycle Ancillary Electricity Rate [W] !Hourly
1729,1,ZONE4BHEATPUMPWATERHEATER,Water Heater On Cycle Ancillary Electricity Rate [W] !Hourly
End of Data Dictionary
1,MIAMI INTL AP ANN HTG 99.6% CONDNS DB,  25.82, -80.30,  -5.00,  11.00
2,1, 1,21, 0, 1, 0.00,60.00,WinterDesignDay
7,8.7
450,0.0
488,0.0
514,0.0
515,0.0
517,0.0
519,0.0
521,0.0
522,0.0
524,0.0
526,0.0
528,0.0
529,0.0
531,0.0
533,0.0
535,0.0
536,0.0
538,0.0
540,0.0
542,0.0
543,0.0
545,0.0
547,0.0
549,0.0
550,0.0
552,513.1443218080196
590,0.0
592,0.0
594,0.0
596,0.0
598,0.0
600,0.0
724,19.6251237281327
787,21.099889247125233
850,21.09949193594466
913,21.09981074209241
976,21.08471438698722
1039,21.098005304814915
1274,1732.8457412890725
1277,898.9401870873492
1280,1781.2157922126005
1283,882.9622722947624
1286,1274.7785594545676
1289,0.0
1328,0.0
1329,59.91165638361191
1330,0.0
1331,7.156259030096308
1332,59.92932557209219
1333,0.0
1334,0.0
1335,59.92928073937539
1336,59.92928073937539
1337,0.0
1339,0.0
1340,0.0
1341,0.0
1455,0.0
1456,5.0
1470,0.0
1472,59.91168436772321
1473,0.0
1474,7.156259030096308
1475,59.929347951764086
1476,0.0
1477,0.0
1478,59.9293031340429
1479,59.9293031340429
1480,0.0
1482,0.0
1483,0.0
1484,0.0
1490,0.0
1491,5.0
1493,0.0
1495,59.8835367289607
1496,0.0
1497,7.156259030096308
1498,59.90682998486063
1499,0.0
1500,0.0
1501,59.9067708829522
1502,59.9067708829522
1503,0.0
1505,0.0
1506,0.0
1507,0.0
1513,0.0
1514,0.0
1516,0.0
1518,59.908560009656014
1519,0.0
1520,7.156259030096308
1521,59.926848483042
1522,0.0
1523,0.0
1524,59.926802079936394
1525,59.926802079936394
1526,0.0
1528,0.0
1529,0.0
1530,0.0
1536,0.0
1537,0.0
1539,0.0
1541,49.9311970172509
1542,0.0
1543,7.156259030096308
1544,49.94495715663781
1545,0.0
1546,0.0
1547,0.0
1548,50.0
1549,0.0
1551,0.0
1552,0.0
1553,0.0
1622,76.10579389388289
1623,0.052833720165780015
1624,49.135482903752205
1625,79.38026465870996
1626,-6696.0460091954865
1627,0.0
1628,79.6921615048951
1629,79.6921615048951
1630,0.0
1632,0.0
1633,0.0
1634,0.0
1640,0.0
1641,0.0
1643,0.0
1708,59.91165638361191
1709,0.0
1710,7.156259030096308
1711,59.92932557209219
1712,0.0
1713,0.0
1714,59.92928073937539
1715,59.92928073937539
1716,0.0
1718,0.0
1719,0.0
1720,0.0
1726,0.0
1727,5.0
1729,0.0
2,1, 1,21, 0, 2, 0.00,60.00,WinterDesignDay
7,8.7
450,0.0
488,0.0
514,0.0
515,0.0
517,0.0
519,0.0
521,0.0
522,0.0
524,0.0
526,0.0
528,0.0
529,0.0
531,0.0
533,0.0
535,0.0
536,0.0
538,0.0
540,0.0
542,0.0
543,0.0
545,0.0
547,0.0
549,0.0
550,0.0
552,513.1443218080196
590,0.0
592,0.0
594,0.0
596,0.0
598,0.0
600,0.0
724,19.59641832365089
787,21.099070550641727
850,21.09887896333545
913,21.099304542993575
976,21.086712696303596
1039,21.097955094309324
1274,1736.3500287420422
1277,899.8100767790735
1280,1783.5688673704335
1283,883.7643795887075
1286,1281.9932482815705
1289,0.0
1328,0.0
1329,59.73587412037434
1330,0.0
1331,7.156259030096308
1332,59.78553290286376
1333,0.0
1334,0.0
1335,59.78548735750169
1336,59.78548735750169
1337,0.0
1339,0.0
1340,0.0
1341,0.0
1455,0.0
1456,5.0
1470,0.0
1472,59.73596119166048
1473,0.0
1474,7.156259030096308
1475,59.78560357094045
1476,0.0
1477,0.0
1478,59.785558039086254
1479,59.785558039086254
1480,0.0
1482,0.0
1483,0.0
1484,0.0
1490,0.0
1491,5.0
1493,0.0
1495,59.65181025309289
1496,0.0
1497,7.156259030096308
1498,59.717273990520965
1499,0.0
1500,0.0
1501,59.71721394722488
1502,59.71721394722488
1503,0.0
1505,0.0
1506,0.0
1507,0.0
1513,0.0
1514,0.0
1516,0.0
1518,59.726622814231725
1519,0.0
1520,7.156259030096308
1521,59.77802093083924
1522,0.0
1523,0.0
1524,59.777973789061726
1525,59.777973789061726
1526,0.0
1528,0.0
1529,0.0
1530,0.0
1536,0.0
1537,0.0
1539,0.0
1541,49.794302063374516
1542,0.0
1543,7.156259030096308
1544,49.83297347286539
1545,0.0
1546,0.0
1547,0.0
1548,50.0
1549,0.0
1551,0.0
1552,0.0
1553,0.0
1622,68.65077665308613
1623,0.05240480351938798
1624,49.25603973837012
1625,79.06641268971819
1626,-6538.319838286391
1627,0.0
1628,74.1926495512987
1629,74.1926495512987
1630,0.0
1632,0.0
1633,0.0
1634,0.0
1640,0.0
1641,0.0
1643,0.0
1708,59.73587412037434
1709,0.0
1710,7.156259030096308
1711,59.78553290286376
1712,0.0
1713,0.0
1714,59.78548735750169
1715,59.78548735750169
1716,0.0
1718,0.0
1719,0.0
1720,0.0
1726,0.0
1727,5.0
1729,0.0
2,1, 1,21, 0, 3, 0.00,60.00,WinterDesignDay
7,8.7
450,0.0
488,0.0
514,0.0
515,0.0
517,0.0
519,0.0
521,0.0
522,0.0
524,0.0
526,0.0
528,0.0
529,0.0
531,0.0
533,0.0
535,0.0
536,0.0
538,0.0
540,0.0
542,0.0
543,0.0
545,0.0
547,0.0
549,0.0
550,0.0
552,513.1443218080196
590,0.0
592,0.0
594,0.0
596,0.0
598,0.0
600,0.0
724,19.57601947355599
787,21.09923296645872
850,21.099440358119104
913,21.100173641151788
976,21.08599136790199
1039,21.097311387022376
1274,1738.8226803440657
1277,901.4806494700935
1280,1787.2929465566212
1283,884.1469321889214
1286,1285.370403608084
1289,0.0
1328,0.0
1329,59.56113183169192
1330,0.0
1331,7.156259030096308
1332,59.64088751438814
1333,0.0
1334,0.0
1335,59.64084176725786
1336,59.64084176725786
1337,0.0
1339,0.0
1340,0.0
1341,0.0
1455,0.0
1456,5.0
1470,0.0
1472,59.561267718683126
1473,0.0
1474,7.156259030096308
1475,59.64099867888905
1476,0.0
1477,0.0
1478,59.64095294459993
1479,59.64095294459993
1480,0.0
1482,0.0
1483,0.0
1484,0.0
1490,0.0
1491,5.0
1493,0.0
1495,59.421441270611496
1496,0.0
1497,7.156259030096308
1498,59.526582881921755
1499,0.0
1500,0.0
1501,59.52652257129006
1502,59.52652257129006
1503,0.0
1505,0.0
1506,0.0
1507,0.0
1513,0.0
1514,0.0
1516,0.0
1518,59.54575228763257
1519,0.0
1520,7.156259030096308
1521,59.62830287295252
1522,0.0
1523,0.0
1524,59.628255521734175
1525,59.628255521734175
1526,0.0
1528,0.0
1529,0.0
1530,0.0
1536,0.0
1537,0.0
1539,0.0
1541,49.658211871199214
1542,0.0
1543,7.156259030096308
1544,49.72032062349989
1545,0.0
1546,0.0
1547,0.0
1548,50.0
1549,0.0
1551,0.0
1552,0.0
1553,0.0
1622,61.76711778821755
1623,0.0579249551056554
1624,49.151933393312916
1625,75.89082966016261
1626,-6461.226471654127
1627,0.0
1628,62.30226755824937
1629,62.30226755824937
1630,0.0
1632,0.06394248913491266
1633,0.0
1634,1631.1859473192007
1640,0.0
1641,0.0
1643,0.0
1708,59.56113183169192
1709,0.0
1710,7.156259030096308
1711,59.64088751438814
1712,0.0
1713,0.0
1714,59.64084176725786
1715,59.64084176725786
1716,0.0
1718,0.0
1719,0.0
1720,0.0
1726,0.0
1727,5.0
1729,0.0
2,1, 1,21, 0, 4, 0.00,60.00,WinterDesignDay
7,8.7
450,0.0
488,0.0
514,0.0
515,0.0
517,0.0
519,0.0
521,0.0
522,0.0
524,0.0
526,0.0
528,0.0
529,0.0
531,0.0
533,0.0
535,0.0
536,0.0
538,0.0
540,0.0
542,0.0
543,0.0
545,0.0
547,0.0
549,0.0
550,0.0
552,513.1443218080196
590,0.0
592,0.0
594,0.0
596,0.0
598,0.0
600,0.0
724,19.561828927189595
787,21.099016713253892
850,21.098466018795932
913,21.099553613309332
976,21.08551628619527
1039,21.09803117221165
1274,1740.1165348470145
1277,901.655951209959
1280,1787.6174535204323
1283,885.3871857136878
1286,1289.0886751541398
1289,0.0
1328,0.0
1329,59.38736371995461
1330,0.0
1331,7.156259030096308
1332,59.495309439402064
1333,0.0
1334,0.0
1335,59.49526333475196
1336,59.49526333475196
1337,0.0
1339,0.0
1340,0.0
1341,0.0
1455,0.0
1456,5.0
1470,0.0
1472,59.38755308408545
1473,0.0
1474,7.156259030096308
1475,59.49546545040607
1476,0.0
1477,0.0
1478,59.495419361423274
1479,59.495419361423274
1480,0.0
1482,0.0
1483,0.0
1484,0.0
1490,0.0
1491,5.0
1493,0.0
1495,59.1923622236869
1496,0.0
1497,7.156259030096308
1498,59.33466679231904
1499,0.0
1500,0.0
1501,59.33460601226854
1502,59.33460601226854
1503,0.0
1505,0.0
1506,0.0
1507,0.0
1513,0.0
1514,0.0
1516,0.0
1518,59.365895369265516
1519,0.0
1520,7.156259030096308
1521,59.47762377118944
1522,0.0
1523,0.0
1524,59.47757605187614
1525,59.47757605187614
1526,0.0
1528,0.0
1529,0.0
1530,0.0
1536,0.0
1537,0.0
1539,0.0
1541,49.522886430975944
1542,0.0
1543,7.156259030096308
1544,49.60694443108514
1545,0.0
1546,0.0
1547,0.0
1548,50.0
1549,0.0
1551,0.0
1552,0.0
1553,0.0
1622,58.36569038716897
1623,0.06995907901790319
1624,48.801543918068155
1625,71.02620007644423
1626,-6498.249935075083
1627,0.0
1628,53.47502740027288
1629,53.47502740027288
1630,0.0
1632,0.20034007653745706
1633,0.0
1634,5110.716238200435
1640,0.0
1641,0.0
1643,0.0
1708,59.38736371995461
1709,0.0
1710,7.156259030096308
1711,59.495309439402064
1712,0.0
1713,0.0
1714,59.49526333475196
1715,59.49526333475196
1716,0.0
1718,0.0
1719,0.0
1720,0.0
1726,0.0
1727,5.0
1729,0.0
2,1, 1,21, 0, 5, 0.00,60.00,WinterDesignDay
7,8.7
450,0.0
488,0.0
514,0.0
515,0.0
517,0.0
519,0.0
521,0.0
522,0.0
524,0.0
526,0.0
528,0.0
529,0.0
531,0.0
533,0.0
535,0.0
536,0.0
538,0.0
540,0.0
542,0.0
543,0.0
545,0.0
547,0.0
549,0.0
550,0.0
552,513.1443218080196
590,0.0
592,0.0
594,0.0
596,0.0
598,0.0
600,0.0
724,19.55217820308632
787,21.10035458249177
850,21.09964599999225
913,21.099644578270027
976,21.086817025672048
1039,21.098519359623733
1274,1742.04256104874
1277,902.7470939832752
1280,1789.0682096925957
1283,886.9042827176667
1286,1292.8183407016954
1289,0.0
1328,0.0
1329,59.214539473012465
1330,0.0
1331,7.156259030096308
1332,59.34848791665458
1333,0.0
1334,0.0
1335,59.34844139878294
1336,59.34844139878294
1337,0.0
1339,0.0
1340,0.0
1341,0.0
1455,0.0
1456,5.0
1470,0.0
1472,59.214781495916434
1473,0.0
1474,7.156259030096308
1475,59.348688705472775
1476,0.0
1477,0.0
1478,59.34864220135851
1479,59.34864220135851
1480,0.0
1482,0.0
1483,0.0
1484,0.0
1490,0.0
1491,5.0
1493,0.0
1495,58.964523829726026
1496,0.0
1497,7.156259030096308
1498,59.141108354352724
1499,0.0
1500,0.0
1501,59.14104702630087
1502,59.14104702630087
1503,0.0
1505,0.0
1506,0.0
1507,0.0
1513,0.0
1514,0.0
1516,0.0
1518,59.18701334802361
1519,0.0
1520,7.156259030096308
1521,59.32565595172605
1522,0.0
1523,0.0
1524,59.32560780262811
1525,59.32560780262811
1526,0.0
1528,0.0
1529,0.0
1530,0.0
1536,0.0
1537,0.0
1539,0.0
1541,49.38829655278051
1542,0.0
1543,7.156259030096308
1544,49.49259851041166
1545,0.0
1546,0.0
1547,0.0
1548,50.0
1549,0.0
1551,0.0
1552,0.0
1553,0.0
1622,57.501736831004614
1623,0.07395144924142963
1624,48.69519791223793
1625,69.95419475020292
1626,-6577.567886645755
1627,0.0
1628,50.31735993301076
1629,50.31735993301076
1630,0.0
1632,0.24569231039513048
1633,0.0
1634,6267.660979467614
1640,0.0
1641,0.0
1643,0.0
1708,59.214539473012465
1709,0.0
1710,7.156259030096308
1711,59.34848791665458
1712,0.0
1713,0.0
1714,59.34844139878294
1715,59.34844139878294
1716,0.0
1718,0.0
1719,0.0
1720,0.0
1726,0.0
1727,5.0
1729,0.0
2,1, 1,21, 0, 6, 0.00,60.00,WinterDesignDay
7,8.7
450,339.09143925729575
488,0.0
514,537.9878198605296
515,223.89638060323387
517,338.4571727099179
519,0.0
521,537.7273758638177
522,224.27020315389964
524,339.8415683308008
526,0.0
528,537.8165609068545
529,222.9749925760538
531,0.0
533,0.0
535,0.0
536,0.0
538,0.0
540,0.0
542,0.0
543,0.0
545,0.0
547,0.0
549,0.0
550,0.0
552,532.469081492562
590,4.795238095238089
592,4.795238095238089
594,4.795238095238089
596,0.0
598,0.0
600,0.0
724,19.555229719981718
787,21.101095597007134
850,21.099527308950744
913,21.100441954972972
976,20.604796978214555
1039,21.044703100670297
1274,1772.2179961136237
1277,923.7467243938861
1280,1823.2241090903767
1283,1072.7721205583102
1286,1663.4849162771036
1289,0.0
1328,142.4776087525595
1329,55.78208863298239
1330,0.011368840259999997
1331,7.156259030096305
1332,59.19027647873137
1333,-2474.5694941322913
1334,0.029559603200392845
1335,59.007085590058246
1336,58.3180117109725
1337,510.8410070706267
1339,0.0
1340,0.0
1341,0.0
1455,0.16666666666666644
1456,4.166666666666666
1470,2.4999999999999964
1472,55.78044108749668
1473,0.011368840259999997
1474,7.156259030096305
1475,59.19063280872775
1476,-2474.5860961635162
1477,0.029559738425107104
1478,59.00693508761164
1479,58.31753948131768
1480,511.08842886750307
1482,0.0
1483,0.0
1484,0.0
1490,0.16666666666666644
1491,4.166666666666666
1493,2.4999999999999964
1495,58.45875503130705
1496,0.0011368840259999996
1497,7.156259030096305
1498,58.945051774537816
1499,-246.36572962603347
1500,0.0
1501,58.945004667798315
1502,58.945004667798315
1503,0.0
1505,0.0
1506,0.0
1507,0.0
1513,0.0
1514,0.0
1516,0.0
1518,58.72873132265657
1519,0.0011368840259999996
1520,7.156259030096305
1521,59.17169283037792
1522,-247.45037951586392
1523,0.0
1524,59.17165583069783
1525,59.17165583069783
1526,0.0
1528,0.0
1529,0.0
1530,0.0
1536,0.0
1537,0.0
1539,0.0
1541,49.026869727408005
1542,0.0011368840259999996
1543,7.156259030096305
1544,49.376745929875675
1545,-200.67726495276446
1546,0.0
1547,0.0
1548,49.999999999999986
1549,0.0
1551,0.0
1552,0.0
1553,0.0
1622,57.32513564415198
1623,0.08143897568936888
1624,48.70750923387307
1625,69.90881096591373
1626,-7220.289686614271
1627,0.0
1628,49.562006332715015
1629,49.562006332715015
1630,0.0
1632,0.28878129285141285
1633,0.0
1634,7366.869715597265
1640,0.0
1641,0.0
1643,0.0
1708,55.76804632966233
1709,0.011370003043782679
1710,7.156259030096305
1711,59.19026898387164
1712,-2474.8193279041693
1713,0.02956058813404286
1714,58.94543536357549
1715,58.21999815737918
1716,537.8165609068545
1718,0.0
1719,0.0
1720,0.0
1726,0.16666666666666644
1727,4.166666666666666
1729,2.4999999999999964
2,1, 1,21, 0, 7, 0.00,60.00,WinterDesignDay
7,8.7
450,2187.095525237237
488,0.0
514,3216.7963185953276
515,1179.7007933580906
517,2035.9023777740204
519,0.0
521,3054.5910428737184
522,1168.688665099698
524,2029.399203556288
526,0.0
528,3054.4464895514666
529,1175.0472859951783
531,0.0
533,0.0
535,0.0
536,0.0
538,0.0
540,0.0
542,0.0
543,0.0
545,0.0
547,0.0
549,0.0
550,0.0
552,625.9924645489776
590,28.771428571428576
592,28.771428571428576
594,28.771428571428576
596,0.0
598,0.0
600,0.0
724,19.305244417175047
787,21.10047732212471
850,21.10054406349924
913,21.09932001106621
976,16.026010507151682
1039,20.315763226538074
1274,1930.7342213766278
1277,1025.2149429402803
1280,1995.4471756826933
1283,1852.4790474100225
1286,3434.9766600687944
1289,0.0
1328,685.0075240841213
1329,49.0150890240473
1330,0.011368840259999999
1331,7.156259030096308
1332,58.860929125103986
1333,-2457.592024131008
1334,0.17758340376901677
1335,46.13112636612386
1336,42.22184115445549
1337,2901.861490730032
1339,0.0
1340,0.0
1341,0.0
1455,1.0
1456,0.0
1470,15.0
1472,49.27339306741368
1473,0.011368840259999999
1474,7.156259030096308
1475,58.880170352850264
1476,-2458.558401207927
1477,0.17756833666001626
1478,46.823947705887136
1479,42.70672014275677
1480,3055.956502665561
1482,0.0
1483,0.0
1484,0.0
1490,1.0
1491,0.0
1493,15.0
1495,57.68091637818907
1496,0.001136884026
1497,7.156259030096308
1498,58.74351757267994
1499,-245.3891623476856
1500,0.0
1501,58.74347937790456
1502,58.74347937790456
1503,0.0
1505,0.0
1506,0.0
1507,0.0
1513,0.0
1514,0.0
1516,0.0
1518,57.99668031120824
1519,0.001136884026
1520,7.156259030096308
1521,59.01289408074449
1522,-246.6780526813537
1523,0.0
1524,59.012863988068126
1525,59.012863988068126
1526,0.0
1528,0.0
1529,0.0
1530,0.0
1536,0.0
1537,0.0
1539,0.0
1541,48.44312759631691
1542,0.001136884026
1543,7.156259030096308
1544,49.25712650299191
1545,-200.10323995982742
1546,0.0
1547,0.0
1548,50.0
1549,0.0
1551,0.0
1552,0.0
1553,0.0
1622,57.20176558773961
1623,0.11551458928428388
1624,48.67356551524899
1625,69.75085344473894
1626,-10186.32052795994
1627,0.0
1628,49.187060818088895
1629,49.187060818088895
1630,0.0
1632,0.40681184176180263
1633,0.0
1634,10377.853106168433
1640,0.0
1641,0.0
1643,0.0
1708,49.39769393531883
1709,0.011370003043782684
1710,7.156259030096308
1711,58.8594786750588
1712,-2457.8470773790887
1713,0.17755908651963764
1714,46.78003384674434
1715,42.664631772726175
1716,3054.4464895514666
1718,0.0
1719,0.0
1720,0.0
1726,1.0
1727,0.0
1729,15.0
2,1, 1,21, 0, 8, 0.00,60.00,WinterDesignDay
7,8.7
450,1848.5824895349429
488,0.0
514,2951.306847641001
515,1246.3871962914118
517,1850.2873131785773
519,0.0
521,3011.2695947331
522,1310.9822815545226
524,1652.1188116874373
526,0.0
528,2696.3980702146023
529,1184.3829112509004
531,0.0
533,0.0
535,0.0
536,0.0
538,0.0
540,0.0
542,0.0
543,0.0
545,0.0
547,0.0
549,0.0
550,0.0
552,622.8471299853278
590,26.795684534550244
592,28.771428571428576
594,25.88057905166741
596,0.0
598,0.0
600,0.0
724,19.11715137068461
787,21.10026887955367
850,21.09959007199968
913,21.100292802500203
976,15.676157870312421
1039,20.195506730688887
1274,1972.5177826116615
1277,1029.2136836749978
1280,2037.2119397920733
1283,1840.671267205848
1286,3433.5675318312396
1289,0.0
1328,519.7470095981512
1329,54.71582381881119
1330,0.0
1331,7.156259030096308
1332,58.34126833423765
1333,0.0
1334,0.17718629873801373
1335,57.29546146523901
1336,53.4329626809218
1337,2860.706114996445
1339,0.0
1340,0.0
1341,0.0
1455,1.0
1456,0.0
1470,15.0
1472,55.51577222963036
1473,0.0
1474,7.156259030096308
1475,58.58510931958142
1476,0.0
1477,0.17712260979008393
1478,58.59284641044865
1479,54.513183466379175
1480,2803.7415052589504
1482,0.0
1483,0.0
1484,0.0
1490,0.9281699211563795
1491,0.35915039421810246
1493,13.922548817345692
1495,57.188801000742465
1496,0.0
1497,7.156259030096308
1498,58.535350161923084
1499,0.0
1500,0.0
1501,58.535295699665284
1502,58.535295699665284
1503,0.0
1505,0.0
1506,0.0
1507,0.0
1513,0.0
1514,0.0
1516,0.0
1518,57.551353920024006
1519,0.0
1520,7.156259030096308
1521,58.84897727867675
1522,0.0
1523,0.0
1524,58.84893441491524
1525,58.84893441491524
1526,0.0
1528,0.0
1529,0.0
1530,0.0
1536,0.0
1537,0.0
1539,0.0
1541,48.092071589849695
1542,0.0
1543,7.156259030096308
1544,49.133687322095945
1545,0.0
1546,0.0
1547,0.0
1548,50.0
1549,0.0
1551,0.0
1552,0.0
1553,0.0
1622,57.231868017228194
1623,0.11791071683128082
1624,48.92345392296714
1625,69.73341450335334
1626,-10265.695580575011
1627,0.0
1628,49.170869584228925
1629,49.170869584228925
1630,0.0
1632,0.41558661643285616
1633,0.0
1634,10601.699398797351
1640,0.0
1641,0.0
1643,0.0
1708,55.704074863411066
1709,0.0
1710,7.156259030096308
1711,58.601222171756895
1712,0.0
1713,0.1623866232993994
1714,58.29198122469407
1715,54.56339893038988
1716,2696.3980702146023
1718,0.0
1719,0.0
1720,0.0
1726,0.8952760495391879
1727,0.5236197523040602
1729,13.42914074308782
2,1, 1,21, 0, 9, 0.00,60.00,WinterDesignDay
7,8.7
450,0.0
488,0.0
514,0.0
515,0.0
517,101.36494539333356
519,0.0
521,169.62078564957753
522,78.47942253043632
524,0.0
526,0.0
528,0.0
529,0.0
531,0.0
533,0.0
535,0.0
536,0.0
538,0.0
540,0.0
542,0.0
543,0.0
545,0.0
547,0.0
549,0.0
550,0.0
552,532.3965170156929
590,0.0
592,1.6403130487267867
594,0.0
596,0.0
598,0.0
600,0.0
724,19.24679657364366
787,21.10016125386509
850,21.099546740865193
913,21.10043049611636
976,20.212252945912695
1039,21.04420796763477
1274,1825.4746422704786
1277,922.1363365811794
1280,1872.9003942880229
1283,1516.9582713519187
1286,1940.91863772373
1289,698.5449870367783
1328,17.132005858656974
1329,59.90953062626758
1330,0.0
1331,7.156259030096308
1332,59.92510634029464
1333,0.0
1334,0.013250553529771291
1335,60.23546625709231
1336,59.940842647008715
1337,161.13974636709864
1339,0.0
1340,0.0
1341,0.0
1455,0.055655458815848095
1456,4.72172270592076