Program Version,EnergyPlus, Version 9.6.0-f420c06a69, YMD=2024.09.02 12:50
1,5,Environment Title[],Latitude[deg],Longitude[deg],Time Zone[],Elevation[m]
2,8,Day of Simulation[],Month[],Day of Month[],DST Indicator[1=yes 0=no],Hour[],StartMinute[],EndMinute[],DayType
3,5,Cumulative Day of Simulation[],Month[],Day of Month[],DST Indicator[1=yes 0=no],DayType  ! When Daily Meters Requested
4,2,Cumulative Days of Simulation[],Month[]  ! When Monthly Meters Requested
5,1,Cumulative Days of Simulation[] ! When Run Period Meters Requested
6,1,Calendar Year of Simulation[] ! When Annual Meters Requested
12,9,Electricity:Facility [J] !Monthly [Value,Min,Day,Hour,Minute,Max,Day,Hour,Minute]
24,9,Electricity:Building [J] !Monthly [Value,Min,Day,Hour,Minute,Max,Day,Hour,Minute]
60,9,InteriorLights:Electricity [J] !Monthly [Value,Min,Day,Hour,Minute,Max,Day,Hour,Minute]
557,9,Electricity:HVAC [J] !Monthly [Value,Min,Day,Hour,Minute,Max,Day,Hour,Minute]
493,9,Electricity:Plant [J] !Monthly [Value,Min,Day,Hour,Minute,Max,Day,Hour,Minute]
14,11,Electricity:Facility [J] !RunPeriod [Value,Min,Month,Day,Hour,Minute,Max,Month,Day,Hour,Minute]
26,11,Electricity:Building [J] !RunPeriod [Value,Min,Month,Day,Hour,Minute,Max,Month,Day,Hour,Minute]
62,11,InteriorLights:Electricity [J] !RunPeriod [Value,Min,Month,Day,Hour,Minute,Max,Month,Day,Hour,Minute]
559,11,Electricity:HVAC [J] !RunPeriod [Value,Min,Month,Day,Hour,Minute,Max,Month,Day,Hour,Minute]
495,11,Electricity:Plant [J] !RunPeriod [Value,Min,Month,Day,Hour,Minute,Max,Month,Day,Hour,Minute]
End of Data Dictionary
1,MIAMI INTL AP ANN HTG 99.6% CONDNS DB,  25.82, -80.30,  -5.00,  11.00
4,1, 1
12,980528958.3298284,977883.292338398,21, 1,45,17846870.919994116,21,11,60
24,345060000.0,427500.0,21, 1,15,10800000.0,21,12,15
60,224100000.0,337500.0,21, 1,15,6750000.0,21,12,15
493,588791818.1863462,88553.40271118039,21, 1,45,14989198.656453228,21,20,45
557,46677140.14348216,461829.88962721766,21, 1,15,641076.0752369369,21, 7,30
5,1
14,980528958.3298284,977883.292338398, 1,21, 1,45,17846870.919994116, 1,21,11,60
26,345060000.0,427500.0, 1,21, 1,15,10800000.0, 1,21,12,15
62,224100000.0,337500.0, 1,21, 1,15,6750000.0, 1,21,12,15
495,588791818.1863462,88553.40271118039, 1,21, 1,45,14989198.656453228, 1,21,20,45
559,46677140.14348216,461829.88962721766, 1,21, 1,15,641076.0752369369, 1,21, 7,30
1,MIAMI INTL AP ANN CLG .4% CONDNS DB=>MWB,  25.82, -80.30,  -5.00,  11.00
4,1, 7
12,1181566682.6925435,4092909.751343125,21, 6,15,31474667.106742375,21,12,60
24,345060000.0,427500.0,21, 1,15,10800000.0,21,12,15
60,224100000.0,337500.0,21, 1,15,6750000.0,21,12,15
493,775732703.1895605,3203579.8617159077,21, 6,15,19638485.045526315,21,12,60
557,60773979.50298375,461829.88962721766,21, 1,15,1088153.0585071822,21,16,45
5,1
14,1181566682.6925435,4092909.751343125, 7,21, 6,15,31474667.106742375, 7,21,12,60
26,345060000.0,427500.0, 7,21, 1,15,10800000.0, 7,21,12,15
62,224100000.0,337500.0, 7,21, 1,15,6750000.0, 7,21,12,15
495,775732703.1895605,3203579.8617159077, 7,21, 6,15,19638485.045526315, 7,21,12,60
559,60773979.50298375,461829.88962721766, 7,21, 1,15,1088153.0585071822, 7,21,16,45
1,RUN PERIOD 1,  25.82, -80.30,  -5.00,  11.00
4,1, 1
12,1014357905.9496537,4166194.127022293,14,21,60,26273210.522354815,14,12,60
24,345060000.0,427500.0,14, 1,15,10800000.0,14,12,15
60,224100000.0,337500.0,14, 1,15,6750000.0,14,12,15
493,619984978.0710326,3276864.2373950756,14,21,60,16473822.828836743,14, 8,30
557,49312927.8786212,461829.88962721766,14, 1,15,770541.0752369369,14, 8,30
5,1
14,1014357905.9496537,4166194.127022293, 1,14,21,60,26273210.522354815, 1,14,12,60
26,345060000.0,427500.0, 1,14, 1,15,10800000.0, 1,14,12,15
62,224100000.0,337500.0, 1,14, 1,15,6750000.0, 1,14,12,15
495,619984978.0710326,3276864.2373950756, 1,14,21,60,16473822.828836743, 1,14, 8,30
559,49312927.8786212,461829.88962721766, 1,14, 1,15,770541.0752369369, 1,14, 8,30
1,RUN PERIOD 2,  25.82, -80.30,  -5.00,  11.00
4,1, 7
12,912318315.8995198,504000.0, 7, 1,15,31599905.19988113, 7,12,30
24,345060000.0,427500.0, 7, 1,15,10800000.0, 7,12,15
60,224100000.0,337500.0, 7, 1,15,6750000.0, 7,12,15
493,530689664.4920095,76500.0, 7, 1,15,19790694.292958442, 7,15,15
557,36568651.40751024,0.0, 7, 1,15,1102728.887916415, 7,12,30
5,1
14,912318315.8995198,504000.0, 7, 7, 1,15,31599905.19988113, 7, 7,12,30
26,345060000.0,427500.0, 7, 7, 1,15,10800000.0, 7, 7,12,15
62,224100000.0,337500.0, 7, 7, 1,15,6750000.0, 7, 7,12,15
495,530689664.4920095,76500.0, 7, 7, 1,15,19790694.292958442, 7, 7,15,15
559,36568651.40751024,0.0, 7, 7, 1,15,1102728.887916415, 7, 7,12,30
End of Data
 Number of Records Written=          40
