        VARIABLES=                 X                 Y                 Z              HEAT      FLOW_WATER_G        FLOW_AIR_G      FLOW_WATER_L        FLOW_AIR_L     FDIFF_WATER_G       FDIFF_AIR_G     FDIFF_WATER_L       FDIFF_AIR_L
 ZONE T=" 0.1560300E+06 SEC"  I =     2419 
                    0.74998205398E-001  0.00000000000E+000 -0.25000000000E+000 -0.18947638025E-002 -0.11774403830E-010 -0.11086656024E-008 -0.37101023708E-012 -0.59626411667E-017  0.91168556012E-009 -0.91168556012E-009  0.10551843562E-021 -0.10551843557E-021
                    0.74998205398E-001  0.00000000000E+000 -0.75000000000E+000 -0.87424158594E-002 -0.11035251660E-011 -0.10461517089E-009  0.31545273672E-011  0.50611771589E-016 -0.20897058297E-009  0.20897058297E-009  0.24880461317E-023 -0.24880461884E-023
                    0.37597140865E-001  0.00000000000E+000 -0.15000000000E+001  0.41240947180E+002  0.00000000000E+000  0.00000000000E+000  0.00000000000E+000  0.00000000000E+000 -0.32403821154E-011  0.32403821154E-011 -0.26250150951E-019  0.26250150949E-019
                    0.37597140865E-001  0.00000000000E+000 -0.27500000000E+001  0.41428878697E+002  0.00000000000E+000  0.00000000000E+000  0.00000000000E+000  0.00000000000E+000 -0.38744231956E-011  0.38744231956E-011 -0.42667158505E-019  0.42667158496E-019
                    0.37597140865E-001  0.00000000000E+000 -0.47500000000E+001  0.41606321780E+002  0.00000000000E+000  0.00000000000E+000  0.00000000000E+000  0.00000000000E+000 -0.60610389588E-011  0.60610389588E-011 -0.61043700414E-019  0.61043700395E-019
                    0.37597140865E-001  0.00000000000E+000 -0.85000000000E+001  0.41703387408E+002  0.00000000000E+000  0.00000000000E+000  0.00000000000E+000  0.00000000000E+000 -0.16246380809E-010  0.16246380809E-010 -0.12998036132E-018  0.12998036126E-018
                    0.37597140865E-001  0.00000000000E+000 -0.13500000000E+002  0.77651982082E+002  0.00000000000E+000  0.00000000000E+000  0.00000000000E+000  0.00000000000E+000 -0.27608365562E-010  0.27608365562E-010 -0.10674034335E-017  0.10674034337E-017
                    0.37597140865E-001  0.00000000000E+000 -0.18500000000E+002  0.77755139083E+002  0.00000000000E+000  0.00000000000E+000  0.00000000000E+000  0.00000000000E+000 -0.37728534040E-010  0.37728534040E-010 -0.79959233233E-017  0.79959233222E-017
                    0.37597140865E-001  0.00000000000E+000 -0.23500000000E+002  0.99694301727E+002  0.00000000000E+000  0.00000000000E+000  0.00000000000E+000  0.00000000000E+000 -0.51802743736E-010  0.51802743736E-010 -0.31138733886E-016  0.31138733877E-016
                    0.37597140865E-001  0.00000000000E+000 -0.28500000000E+002  0.10156126924E+003  0.00000000000E+000  0.00000000000E+000  0.00000000000E+000  0.00000000000E+000 -0.35645896983E-009  0.35645896983E-009 -0.48832203229E-015  0.48832203228E-015
                    0.37597140865E-001  0.00000000000E+000 -0.33500000000E+002  0.12025694912E+003  0.00000000000E+000  0.00000000000E+000  0.00000000000E+000  0.00000000000E+000 -0.00000000000E+000  0.00000000000E+000 -0.60002945484E-014  0.60002945484E-014
                    0.37597140865E-001  0.00000000000E+000 -0.38500000000E+002  0.12034448836E+003  0.00000000000E+000  0.00000000000E+000  0.00000000000E+000  0.00000000000E+000 -0.00000000000E+000  0.00000000000E+000 -0.77779960417E-014  0.77779960417E-014
                    0.37597140865E-001  0.00000000000E+000 -0.42250000000E+002  0.42809856928E+002  0.00000000000E+000  0.00000000000E+000  0.00000000000E+000  0.00000000000E+000 -0.00000000000E+000  0.00000000000E+000 -0.43325257554E-014  0.43325257554E-014
                    0.37597140865E-001  0.00000000000E+000 -0.44250000000E+002  0.42549617216E+002  0.00000000000E+000  0.00000000000E+000  0.00000000000E+000  0.00000000000E+000 -0.00000000000E+000  0.00000000000E+000 -0.27514314365E-014  0.27514314365E-014
                    0.37597140865E-001  0.00000000000E+000 -0.45500000000E+002  0.42314757076E+002  0.00000000000E+000  0.00000000000E+000  0.00000000000E+000  0.00000000000E+000 -0.00000000000E+000  0.00000000000E+000 -0.18958395265E-014  0.18958395265E-014
                    0.37597140865E-001  0.00000000000E+000 -0.46500000000E+002  0.42376566771E+002  0.00000000000E+000  0.00000000000E+000  0.00000000000E+000  0.00000000000E+000 -0.00000000000E+000  0.00000000000E+000 -0.19404971795E-014  0.19404971795E-014
                    0.37597140865E-001  0.00000000000E+000 -0.47500000000E+002  0.42449991197E+002  0.00000000000E+000  0.00000000000E+000  0.00000000000E+000  0.00000000000E+000 -0.00000000000E+000  0.00000000000E+000 -0.19832034216E-014  0.19832034216E-014
                    0.37597140865E-001  0.00000000000E+000 -0.48500000000E+002  0.42366411310E+002  0.00000000000E+000  0.00000000000E+000  0.00000000000E+000  0.00000000000E+000 -0.00000000000E+000  0.00000000000E+000 -0.20255337860E-014  0.20255337860E-014
                    0.37597140865E-001  0.00000000000E+000 -0.49500000000E+002  0.42381820019E+002  0.00000000000E+000  0.00000000000E+000  0.00000000000E+000  0.00000000000E+000 -0.00000000000E+000  0.00000000000E+000 -0.20679627861E-014  0.20679627861E-014
                    0.37597140865E-001  0.00000000000E+000 -0.50500000000E+002  0.42450463130E+002  0.00000000000E+000  0.00000000000E+000  0.00000000000E+000  0.00000000000E+000 -0.00000000000E+000  0.00000000000E+000 -0.21122235612E-014  0.21122235612E-014
                    0.37597140865E-001  0.00000000000E+000 -0.51500000000E+002  0.42622791078E+002  0.00000000000E+000  0.00000000000E+000  0.00000000000E+000  0.00000000000E+000 -0.00000000000E+000 -0.00000000000E+000 -0.11265361413E-014  0.11265361413E-014
                    0.37597140865E-001  0.00000000000E+000 -0.52500000000E+002  0.42608881088E+002  0.00000000000E+000  0.00000000000E+000  0.00000000000E+000  0.00000000000E+000 -0.00000000000E+000 -0.00000000000E+000 -0.91965537211E-015  0.91965537208E-015
                    0.37597140865E-001  0.00000000000E+000 -0.53500000000E+002  0.42602959233E+002  0.00000000000E+000  0.00000000000E+000  0.00000000000E+000  0.00000000000E+000 -0.00000000000E+000 -0.00000000000E+000 -0.83251067532E-015  0.83251067532E-015
                    0.37597140865E-001  0.00000000000E+000 -0.54500000000E+002  0.42610547256E+002  0.00000000000E+000  0.00000000000E+000  0.00000000000E+000  0.00000000000E+000 -0.00000000000E+000 -0.00000000000E+000 -0.85087473146E-015  0.85087473149E-015
                    0.37597140865E-001  0.00000000000E+000 -0.55500000000E+002  0.42595769190E+002  0.00000000000E+000  0.00000000000E+000  0.00000000000E+000  0.00000000000E+000 -0.00000000000E+000 -0.00000000000E+000 -0.88506638570E-015  0.88506638567E-015
                    0.37597140865E-001  0.00000000000E+000 -0.56500000000E+002  0.42571789679E+002  0.00000000000E+000  0.00000000000E+000  0.00000000000E+000  0.00000000000E+000 -0.00000000000E+000 -0.00000000000E+000 -0.92335095954E-015  0.92335095957E-015
                    0.37597140865E-001  0.00000000000E+000 -0.57750000000E+002  0.42603698338E+002  0.00000000000E+000  0.00000000000E+000  0.00000000000E+000  0.00000000000E+000 -0.00000000000E+000 -0.00000000000E+000 -0.14345495707E-014  0.14345495708E-014
                    0.37597140865E-001  0.00000000000E+000 -0.59750000000E+002  0.42593848381E+002  0.00000000000E+000  0.00000000000E+000  0.00000000000E+000  0.00000000000E+000 -0.00000000000E+000 -0.00000000000E+000 -0.23954610555E-014  0.23954610554E-014
                    0.37597140865E-001  0.00000000000E+000 -0.63500000000E+002  0.11756605499E+003  0.00000000000E+000  0.00000000000E+000  0.00000000000E+000  0.00000000000E+000 -0.00000000000E+000 -0.00000000000E+000 -0.48747240269E-014  0.48747240270E-014
                    0.37597140865E-001  0.00000000000E+000 -0.68500000000E+002  0.11754222054E+003  0.00000000000E+000  0.00000000000E+000  0.00000000000E+000  0.00000000000E+000 -0.00000000000E+000 -0.00000000000E+000 -0.47095871154E-014  0.47095871153E-014
                    0.37597140865E-001  0.00000000000E+000 -0.76000000000E+002  0.16982027507E+003  0.00000000000E+000  0.00000000000E+000  0.00000000000E+000  0.00000000000E+000 -0.00000000000E+000 -0.00000000000E+000 -0.83425650047E-014  0.83425650045E-014
                    0.37597140865E-001  0.00000000000E+000 -0.86000000000E+002  0.17265201924E+003  0.00000000000E+000  0.00000000000E+000  0.00000000000E+000  0.00000000000E+000 -0.00000000000E+000 -0.00000000000E+000 -0.68321096821E-014  0.68321096819E-014
                    0.37597140865E-001  0.00000000000E+000 -0.93500000000E+002  0.95639962992E+002  0.00000000000E+000  0.00000000000E+000  0.00000000000E+000  0.00000000000E+000 -0.00000000000E+000 -0.00000000000E+000 -0.29455628652E-014  0.29455628652E-014
                    0.37597140865E-001  0.00000000000E+000 -0.97500000000E+002  0.95928696707E+002  0.00000000000E+000  0.00000000000E+000  0.00000000000E+000  0.00000000000E+000 -0.00000000000E+000 -0.00000000000E+000 -0.18731620458E-014  0.18731620459E-014
                    0.37597140865E-001  0.00000000000E+000 -0.10000000000E+003  0.95912043451E+002  0.00000000000E+000  0.00000000000E+000  0.00000000000E+000  0.00000000000E+000 -0.00000000000E+000 -0.00000000000E+000 -0.14221814525E-014  0.14221814525E-014
                    0.74998205398E-001  0.00000000000E+000 -0.10200000000E+003  0.95816732748E+000  0.00000000000E+000  0.00000000000E+000  0.12469962405E-004  0.12470086791E-009  0.00000000000E+000  0.00000000000E+000  0.00000000000E+000 -0.68334807564E-025
                    0.74998205398E-001  0.00000000000E+000 -0.10500000000E+003  0.27210025150E-001  0.00000000000E+000  0.00000000000E+000  0.36810380803E-006  0.36810747981E-011  0.00000000000E+000  0.00000000000E+000  0.00000000000E+000  0.37544087835E-025
                    0.74998205398E-001  0.00000000000E+000 -0.11100000000E+003  0.30876391034E-001  0.00000000000E+000  0.00000000000E+000  0.40628670181E-006  0.40629075445E-011  0.00000000000E+000  0.00000000000E+000  0.00000000000E+000 -0.23499645101E-024
                    0.74998205398E-001  0.00000000000E+000 -0.12300000000E+003  0.17527039544E+002  0.00000000000E+000  0.00000000000E+000  0.22744143103E-003  0.22744369972E-008  0.00000000000E+000  0.00000000000E+000  0.00000000000E+000  0.17393548620E-024
                    0.74998205398E-001  0.00000000000E+000 -0.14700000000E+003 -0.99471197787E+000  0.00000000000E+000  0.00000000000E+000 -0.12484657195E-004 -0.12484781728E-009  0.00000000000E+000  0.00000000000E+000  0.00000000000E+000 -0.49093641101E-026
                    0.74998205398E-001  0.00000000000E+000 -0.19500000000E+003  0.24131939636E+000  0.00000000000E+000  0.00000000000E+000  0.28757543249E-005  0.28757830101E-010  0.00000000000E+000  0.00000000000E+000  0.00000000000E+000 -0.49134809642E-026
                    0.83584331342E-001  0.00000000000E+000 -0.25000000000E+000 -0.12449832975E-002 -0.21437816245E-010 -0.20129193916E-008 -0.28587932553E-012 -0.45807912178E-017 -0.31806281088E-011  0.31806281088E-011  0.22106384923E-026 -0.22106493063E-026
                    0.83584331342E-001  0.00000000000E+000 -0.75000000000E+000  0.29932582631E-001 -0.36336651737E-012 -0.34469572434E-010  0.29526271375E-011  0.47372402618E-016  0.99082302507E-010 -0.99082302507E-010  0.49232745552E-025 -0.49232490461E-025
                    0.83584331342E-001  0.00000000000E+000 -0.15000000000E+001  0.41183170423E+002  0.51762742497E-009  0.82323799720E-007 -0.90345834256E-008 -0.14623313718E-012  0.82348642521E-007 -0.82348642521E-007  0.11862872807E-021 -0.11862872721E-021
                    0.83584331342E-001  0.00000000000E+000 -0.27500000000E+001  0.41433564415E+002  0.72788168325E-009  0.97247464644E-007 -0.24718631165E-007 -0.40043052238E-012  0.97255566990E-007 -0.97255566990E-007  0.25470929573E-021 -0.25470929164E-021
                    0.83584331342E-001  0.00000000000E+000 -0.47500000000E+001  0.41615882291E+002  0.96149642361E-009  0.11122006178E-006 -0.41638503664E-007 -0.67634673635E-012  0.11124822974E-006 -0.11124822974E-006  0.53459824963E-021 -0.53459824581E-021
                    0.83584331342E-001  0.00000000000E+000 -0.85000000000E+001  0.41714248032E+002  0.11719354058E-008  0.12172552387E-006 -0.74618193307E-007 -0.12213521172E-011  0.12185602651E-006 -0.12185602651E-006  0.13452166853E-020 -0.13452166962E-020
                    0.83584331342E-001  0.00000000000E+000 -0.13500000000E+002  0.77298498041E+002  0.17814126824E-008  0.20086124621E-006 -0.15840752287E-006 -0.26367303323E-011  0.20063629420E-006 -0.20063629420E-006  0.11280918877E-019 -0.11280918693E-019
                    0.83584331342E-001  0.00000000000E+000 -0.18500000000E+002  0.77405176785E+002  0.16111475667E-008  0.18163569162E-006 -0.15016035632E-006 -0.25526561696E-011  0.18059235631E-006 -0.18059235631E-006  0.10819944634E-018 -0.10819944561E-018
                    0.83584331342E-001  0.00000000000E+000 -0.23500000000E+002  0.98644020686E+002  0.13708771464E-008  0.16123682831E-006 -0.37381467760E-007 -0.65713027489E-012  0.14572852315E-006 -0.14572852315E-006  0.38011637240E-017 -0.38011636528E-017
                    0.83584331342E-001  0.00000000000E+000 -0.28500000000E+002  0.10062132338E+003  0.17509487374E-011  0.39556305131E-009  0.43232651220E-007  0.15773102458E-011  0.55456543772E-010 -0.55456543772E-010  0.65062090299E-015 -0.65062089414E-015
                    0.83584331342E-001  0.00000000000E+000 -0.33500000000E+002  0.11909805812E+003  0.00000000000E+000  0.00000000000E+000  0.30531590175E-005  0.19296940896E-009  0.00000000000E+000 -0.00000000000E+000  0.12238834526E-014 -0.12238834854E-014
                    0.83584331342E-001  0.00000000000E+000 -0.38500000000E+002  0.11905804372E+003  0.00000000000E+000  0.00000000000E+000  0.18803924797E-005  0.15396081934E-009  0.00000000000E+000 -0.00000000000E+000  0.11677219000E-014 -0.11677218817E-014
                    0.83584331342E-001  0.00000000000E+000 -0.42250000000E+002  0.41947405594E+002  0.00000000000E+000  0.00000000000E+000  0.21406052864E-006  0.19636561907E-010  0.00000000000E+000 -0.00000000000E+000  0.29973065205E-015 -0.29973065228E-015
                    0.83584331342E-001  0.00000000000E+000 -0.44250000000E+002  0.41686268159E+002  0.00000000000E+000  0.00000000000E+000  0.86499439920E-007  0.83680839106E-011  0.00000000000E+000 -0.00000000000E+000  0.33491867736E-015 -0.33491868913E-015
                    0.83584331342E-001  0.00000000000E+000 -0.45500000000E+002  0.41458386048E+002  0.00000000000E+000  0.00000000000E+000 -0.10178939990E-007 -0.10161912314E-011  0.00000000000E+000 -0.00000000000E+000  0.33677668044E-015 -0.33677667537E-015
                    0.83584331342E-001  0.00000000000E+000 -0.46500000000E+002  0.41527471967E+002  0.00000000000E+000  0.00000000000E+000 -0.24393841648E-007 -0.24949202067E-011  0.00000000000E+000 -0.00000000000E+000  0.32247427239E-015 -0.32247427785E-015
                    0.83584331342E-001  0.00000000000E+000 -0.47500000000E+002  0.41553636545E+002  0.00000000000E+000  0.00000000000E+000 -0.11531632690E-007 -0.12075712678E-011  0.00000000000E+000 -0.00000000000E+000  0.32220445738E-015 -0.32220445260E-015
                    0.83584331342E-001  0.00000000000E+000 -0.48500000000E+002  0.41518415503E+002  0.00000000000E+000  0.00000000000E+000  0.22158416156E-007  0.23742812282E-011  0.00000000000E+000 -0.00000000000E+000  0.27618034581E-015 -0.27618033713E-015
                    0.83584331342E-001  0.00000000000E+000 -0.49500000000E+002  0.41536207320E+002  0.00000000000E+000  0.00000000000E+000  0.62789625214E-007  0.68793037895E-011  0.00000000000E+000 -0.00000000000E+000  0.30177920446E-015 -0.30177920298E-015
                    0.83584331342E-001  0.00000000000E+000 -0.50500000000E+002  0.41559287127E+002  0.00000000000E+000  0.00000000000E+000  0.11805604498E-006  0.13209519879E-010  0.00000000000E+000 -0.00000000000E+000  0.24693401969E-015 -0.24693402243E-015
                    0.83584331342E-001  0.00000000000E+000 -0.51500000000E+002  0.41603170664E+002  0.00000000000E+000  0.00000000000E+000  0.14539989407E-006  0.34017543112E-011  0.00000000000E+000  0.00000000000E+000 -0.24602374897E-014  0.24602374927E-014
                    0.83584331342E-001  0.00000000000E+000 -0.52500000000E+002  0.41588526094E+002  0.00000000000E+000  0.00000000000E+000  0.15589471925E-006  0.21820731198E-011  0.00000000000E+000  0.00000000000E+000 -0.18630486755E-015  0.18630486895E-015
                    0.83584331342E-001  0.00000000000E+000 -0.53500000000E+002  0.41582114317E+002  0.00000000000E+000  0.00000000000E+000  0.15608778390E-006  0.16975066503E-011  0.00000000000E+000  0.00000000000E+000 -0.27990559025E-017  0.27990660802E-017
                    0.83584331342E-001  0.00000000000E+000 -0.54500000000E+002  0.41589826891E+002  0.00000000000E+000  0.00000000000E+000  0.15268047008E-006  0.15492531102E-011  0.00000000000E+000  0.00000000000E+000 -0.57614663844E-017  0.57614711292E-017
                    0.83584331342E-001  0.00000000000E+000 -0.55500000000E+002  0.41573476955E+002  0.00000000000E+000  0.00000000000E+000  0.14748948300E-006  0.14777422937E-011  0.00000000000E+000  0.00000000000E+000 -0.10894261005E-018  0.10893903637E-018
                    0.83584331342E-001  0.00000000000E+000 -0.56500000000E+002  0.41535790832E+002  0.00000000000E+000  0.00000000000E+000  0.12238633347E-006  0.12241683955E-011  0.00000000000E+000  0.00000000000E+000 -0.48985404551E-020  0.49019711505E-020
                    0.83584331342E-001  0.00000000000E+000 -0.57750000000E+002  0.41609401662E+002  0.00000000000E+000  0.00000000000E+000  0.19903507252E-006  0.19903964648E-011  0.00000000000E+000  0.00000000000E+000 -0.76919820804E-020  0.76799406453E-020
                    0.83584331342E-001  0.00000000000E+000 -0.59750000000E+002  0.41591345530E+002  0.00000000000E+000  0.00000000000E+000  0.34210118780E-006  0.34210469354E-011  0.00000000000E+000  0.00000000000E+000 -0.12818278973E-019  0.12830733415E-019
                    0.83584331342E-001  0.00000000000E+000 -0.63500000000E+002  0.11504733574E+003  0.00000000000E+000  0.00000000000E+000  0.61755987011E-006  0.61756603017E-011  0.00000000000E+000  0.00000000000E+000 -0.26087884186E-019  0.26093379107E-019
                    0.83584331342E-001  0.00000000000E+000 -0.68500000000E+002  0.11501765915E+003  0.00000000000E+000  0.00000000000E+000  0.53861559157E-006  0.53862096417E-011  0.00000000000E+000  0.00000000000E+000 -0.25191076953E-019  0.25211765469E-019
                    0.83584331342E-001  0.00000000000E+000 -0.76000000000E+002  0.16644224768E+003  0.00000000000E+000  0.00000000000E+000  0.89873205368E-006  0.89874101838E-011  0.00000000000E+000  0.00000000000E+000 -0.44613839204E-019  0.44659685686E-019
                    0.83584331342E-001  0.00000000000E+000 -0.86000000000E+002  0.16935723065E+003  0.00000000000E+000  0.00000000000E+000  0.61216259241E-006  0.61216869864E-011  0.00000000000E+000  0.00000000000E+000 -0.36542604321E-019  0.36582230673E-019
                    0.83584331342E-001  0.00000000000E+000 -0.93500000000E+002  0.93337509070E+002  0.00000000000E+000  0.00000000000E+000  0.21789809555E-006  0.21790026904E-011  0.00000000000E+000  0.00000000000E+000 -0.15772251212E-019  0.15762912028E-019
                    0.83584331342E-001  0.00000000000E+000 -0.97500000000E+002  0.93514199195E+002  0.00000000000E+000  0.00000000000E+000  0.27595775914E-007  0.27596051178E-012  0.00000000000E+000  0.00000000000E+000 -0.10039400232E-019  0.10034789942E-019
                    0.83584331342E-001  0.00000000000E+000 -0.10000000000E+003  0.93470852208E+002  0.00000000000E+000  0.00000000000E+000 -0.29736733293E-007 -0.29737029814E-012  0.00000000000E+000  0.00000000000E+000 -0.76079297834E-020  0.76128541654E-020
                    0.83584331342E-001  0.00000000000E+000 -0.10200000000E+003  0.10425158926E+001  0.00000000000E+000  0.00000000000E+000  0.12826736620E-004  0.12826864565E-009  0.00000000000E+000  0.00000000000E+000  0.00000000000E+000  0.31644395338E-024
                    0.83584331342E-001  0.00000000000E+000 -0.10500000000E+003  0.34225954890E-001  0.00000000000E+000  0.00000000000E+000  0.45638342149E-006  0.45638797384E-011  0.00000000000E+000  0.00000000000E+000  0.00000000000E+000 -0.15572762312E-025
                    0.83584331342E-001  0.00000000000E+000 -0.11100000000E+003  0.38335107090E-001  0.00000000000E+000  0.00000000000E+000  0.50443094404E-006  0.50443597565E-011  0.00000000000E+000  0.00000000000E+000  0.00000000000E+000  0.37191764217E-024
                    0.83584331342E-001  0.00000000000E+000 -0.12300000000E+003  0.21779872136E+002  0.00000000000E+000  0.00000000000E+000  0.28263131903E-003  0.28263413823E-008  0.00000000000E+000  0.00000000000E+000  0.00000000000E+000 -0.25811444353E-024
                    0.83584331342E-001  0.00000000000E+000 -0.14700000000E+003 -0.12383727996E+001  0.00000000000E+000  0.00000000000E+000 -0.15506670520E-004 -0.15506825196E-009  0.00000000000E+000  0.00000000000E+000  0.00000000000E+000 -0.11491393611E-023
                    0.83584331342E-001  0.00000000000E+000 -0.19500000000E+003  0.29973052428E+000  0.00000000000E+000  0.00000000000E+000  0.35718278948E-005  0.35718635232E-010  0.00000000000E+000  0.00000000000E+000  0.00000000000E+000  0.12429848058E-025
                    0.93414398785E-001  0.00000000000E+000 -0.25000000000E+000 -0.37029221099E-003 -0.21299284876E-010 -0.19999157023E-008 -0.30671447166E-012 -0.49146431058E-017 -0.25592932473E-012  0.25592932473E-012  0.30863749612E-026 -0.30864577381E-026
                    0.93414398785E-001  0.00000000000E+000 -0.75000000000E+000  0.73865227820E-001 -0.21419147129E-011 -0.20317349572E-009  0.33900981209E-011  0.54391116018E-016  0.24458117823E-009 -0.24458117823E-009  0.12240923661E-024 -0.12240943034E-024
                    0.93414398785E-001  0.00000000000E+000 -0.15000000000E+001  0.41093548668E+002  0.56524314675E-009  0.85995928279E-007  0.22980071153E-009  0.37162863123E-014  0.85954765051E-007 -0.85954765051E-007  0.89494363206E-022 -0.89494363535E-022
                    0.93414398785E-001  0.00000000000E+000 -0.27500000000E+001  0.41401011002E+002  0.77360241657E-009  0.10038401588E-006  0.30472394766E-009  0.49330227587E-014  0.10029679486E-006 -0.10029679486E-006  0.19108686043E-021 -0.19108686073E-021
                    0.93414398785E-001  0.00000000000E+000 -0.47500000000E+001  0.41573782459E+002  0.99744083220E-009  0.11340457632E-006 -0.34217271064E-008 -0.55567493427E-013  0.11336885417E-006 -0.11336885417E-006  0.41637241522E-021 -0.41637241002E-021
                    0.93414398785E-001  0.00000000000E+000 -0.85000000000E+001  0.41665848568E+002  0.11909110042E-008  0.12265256754E-006 -0.11115130035E-007 -0.18190994826E-012  0.12291544161E-006 -0.12291544161E-006  0.12074804590E-020 -0.12074804587E-020
                    0.93414398785E-001  0.00000000000E+000 -0.13500000000E+002  0.76722536049E+002  0.18274459144E-008  0.20290155176E-006 -0.97067937284E-007 -0.16153787962E-011  0.20232910628E-006 -0.20232910628E-006  0.10671361258E-019 -0.10671361408E-019
                    0.93414398785E-001  0.00000000000E+000 -0.18500000000E+002  0.76836618725E+002  0.16572484214E-008  0.18411575580E-006 -0.93832617052E-007 -0.15947914394E-011  0.18171484973E-006 -0.18171484973E-006  0.10824561609E-018 -0.10824561739E-018
                    0.93414398785E-001  0.00000000000E+000 -0.23500000000E+002  0.97600590983E+002  0.15665783262E-008  0.18132902930E-006  0.73336526582E-007  0.12886360119E-011  0.14628718663E-006 -0.14628718663E-006  0.38106250236E-017 -0.38106251140E-017
                    0.93414398785E-001  0.00000000000E+000 -0.28500000000E+002  0.99529266151E+002  0.14130369483E-011  0.31604930152E-009  0.91232611393E-007  0.33283175885E-011  0.55374780170E-010 -0.55374780170E-010  0.65004635953E-015 -0.65004637717E-015
                    0.93414398785E-001  0.00000000000E+000 -0.33500000000E+002  0.11779033531E+003  0.00000000000E+000  0.00000000000E+000  0.69674261069E-005  0.44034544236E-009  0.00000000000E+000 -0.00000000000E+000  0.12516312687E-014 -0.12516312846E-014
                    0.93414398785E-001  0.00000000000E+000 -0.38500000000E+002  0.11760421076E+003  0.00000000000E+000  0.00000000000E+000  0.42933459677E-005  0.35151552301E-009  0.00000000000E+000 -0.00000000000E+000  0.12192824569E-014 -0.12192824920E-014
                    0.93414398785E-001  0.00000000000E+000 -0.42250000000E+002  0.40967903655E+002  0.00000000000E+000  0.00000000000E+000  0.48033335232E-006  0.44062042975E-010  0.00000000000E+000 -0.00000000000E+000  0.37281516248E-015 -0.37281516422E-015
                    0.93414398785E-001  0.00000000000E+000 -0.44250000000E+002  0.40722959727E+002  0.00000000000E+000  0.00000000000E+000  0.18915835706E-006  0.18298943747E-010  0.00000000000E+000 -0.00000000000E+000  0.42075587945E-015 -0.42075587513E-015
                    0.93414398785E-001  0.00000000000E+000 -0.45500000000E+002  0.40523746126E+002  0.00000000000E+000  0.00000000000E+000 -0.25196044748E-007 -0.25153098967E-011  0.00000000000E+000 -0.00000000000E+000  0.40227913514E-015 -0.40227914065E-015
                    0.93414398785E-001  0.00000000000E+000 -0.46500000000E+002  0.40593969616E+002  0.00000000000E+000  0.00000000000E+000 -0.57917338363E-007 -0.59234163905E-011  0.00000000000E+000 -0.00000000000E+000  0.40938551506E-015 -0.40938551368E-015
                    0.93414398785E-001  0.00000000000E+000 -0.47500000000E+002  0.40593432401E+002  0.00000000000E+000  0.00000000000E+000 -0.27697590743E-007 -0.29003574764E-011  0.00000000000E+000 -0.00000000000E+000  0.39159264539E-015 -0.39159265207E-015
                    0.93414398785E-001  0.00000000000E+000 -0.48500000000E+002  0.40587409103E+002  0.00000000000E+000  0.00000000000E+000  0.47661966236E-007  0.51068157902E-011  0.00000000000E+000 -0.00000000000E+000  0.39388115116E-015 -0.39388115622E-015
                    0.93414398785E-001  0.00000000000E+000 -0.49500000000E+002  0.40605409961E+002  0.00000000000E+000  0.00000000000E+000  0.14207727567E-006  0.15565654866E-010  0.00000000000E+000 -0.00000000000E+000  0.36724295829E-015 -0.36724295877E-015
                    0.93414398785E-001  0.00000000000E+000 -0.50500000000E+002  0.40606180954E+002  0.00000000000E+000  0.00000000000E+000  0.26228840438E-006  0.29347201351E-010  0.00000000000E+000 -0.00000000000E+000  0.31211065441E-015 -0.31211065567E-015
                    0.93414398785E-001  0.00000000000E+000 -0.51500000000E+002  0.40494033015E+002  0.00000000000E+000  0.00000000000E+000  0.33074629563E-006  0.77412113265E-011  0.00000000000E+000  0.00000000000E+000 -0.10606565410E-014  0.10606565395E-014
                    0.93414398785E-001  0.00000000000E+000 -0.52500000000E+002  0.40480110958E+002  0.00000000000E+000  0.00000000000E+000  0.35472497262E-006  0.49651758765E-011  0.00000000000E+000  0.00000000000E+000 -0.18038682937E-016  0.18038678492E-016
                    0.93414398785E-001  0.00000000000E+000 -0.53500000000E+002  0.40473411301E+002  0.00000000000E+000  0.00000000000E+000  0.35514783253E-006  0.38622588366E-011  0.00000000000E+000  0.00000000000E+000  0.29179158704E-016 -0.29179159917E-016
                    0.93414398785E-001  0.00000000000E+000 -0.54500000000E+002  0.40479614708E+002  0.00000000000E+000  0.00000000000E+000  0.34736968524E-006  0.35247698305E-011  0.00000000000E+000  0.00000000000E+000  0.10725612531E-018 -0.10725808957E-018
                    0.93414398785E-001  0.00000000000E+000 -0.55500000000E+002  0.40463217018E+002  0.00000000000E+000  0.00000000000E+000  0.33546881642E-006  0.33611651009E-011  0.00000000000E+000  0.00000000000E+000 -0.10171578163E-018  0.10171921037E-018
                    0.93414398785E-001  0.00000000000E+000 -0.56500000000E+002  0.40407758220E+002  0.00000000000E+000  0.00000000000E+000  0.28037230647E-006  0.28044221770E-011  0.00000000000E+000  0.00000000000E+000 -0.10224198994E-018  0.10223155321E-018
                    0.93414398785E-001  0.00000000000E+000 -0.57750000000E+002  0.40496722583E+002  0.00000000000E+000  0.00000000000E+000  0.45403894164E-006  0.45404937576E-011  0.00000000000E+000  0.00000000000E+000  0.00000000000E+000 -0.81464825863E-024
                    0.93414398785E-001  0.00000000000E+000 -0.59750000000E+002  0.40504211838E+002  0.00000000000E+000  0.00000000000E+000  0.77750795174E-006  0.77751591940E-011  0.00000000000E+000  0.00000000000E+000  0.00000000000E+000 -0.73933487671E-024
                    0.93414398785E-001  0.00000000000E+000 -0.63500000000E+002  0.11247198488E+003  0.00000000000E+000  0.00000000000E+000  0.14012055473E-005  0.14012195241E-010  0.00000000000E+000  0.00000000000E+000  0.00000000000E+000  0.11888393651E-023
                    0.93414398785E-001  0.00000000000E+000 -0.68500000000E+002  0.11243689672E+003  0.00000000000E+000  0.00000000000E+000  0.12208599115E-005  0.12208720894E-010  0.00000000000E+000  0.00000000000E+000  0.00000000000E+000  0.11744741617E-023
                    0.93414398785E-001  0.00000000000E+000 -0.76000000000E+002  0.16278645013E+003  0.00000000000E+000  0.00000000000E+000  0.20392404385E-005  0.20392607796E-010  0.00000000000E+000  0.00000000000E+000  0.00000000000E+000  0.46232901798E-023
                    0.93414398785E-001  0.00000000000E+000 -0.86000000000E+002  0.16573259726E+003  0.00000000000E+000  0.00000000000E+000  0.13881349599E-005  0.13881488063E-010  0.00000000000E+000  0.00000000000E+000  0.00000000000E+000  0.14464556913E-023