 VARIABLES       =                 X                 Y                 Z              ROCK              PRES              TEMP             SAT_G             SAT_L         X_WATER_G           X_AIR_G         X_WATER_L           X_AIR_L             REL_G             REL_L           PCAP_GL             DEN_G             DEN_L               POR
 ZONE T=" 0.1560300E+06 SEC"  I =        9 J =        0 K =       30
                    0.37500000000E-001  0.00000000000E+000 -0.15000000000E+001                   2  0.99186991242E+005  0.62712751226E+001  0.49997903621E+000  0.50002096379E+000  0.59973475483E-002  0.99400265245E+000  0.99998420925E+000  0.15790753678E-004  0.18747379629E+000  0.61125124470E-001  0.00000000000E+000  0.12319059096E+001  0.99999744038E+003  0.10000292185E-002
                    0.37500000000E-001  0.00000000000E+000 -0.27500000000E+001                   2  0.10032478320E+006  0.91711679936E+001  0.49981976607E+000  0.50018023393E+000  0.72324089571E-002  0.99276759104E+000  0.99998405984E+000  0.15940164719E-004  0.18727478372E+000  0.61201169043E-001  0.00000000000E+000  0.12323199783E+001  0.99985695890E+003  0.10000292147E-002
                    0.37500000000E-001  0.00000000000E+000 -0.47500000000E+001                   2  0.10142904706E+006  0.11633208493E+002  0.49979401095E+000  0.50020598905E+000  0.84387423969E-002  0.99156125760E+000  0.99998391566E+000  0.16084336830E-004  0.18724261313E+000  0.61213472226E-001  0.00000000000E+000  0.12342154320E+001  0.99964112420E+003  0.10000220141E-002
                    0.37500000000E-001  0.00000000000E+000 -0.85000000000E+001                   2  0.10280627483E+006  0.13587130326E+002  0.49972153915E+000  0.50027846085E+000  0.94710930151E-002  0.99052890698E+000  0.99998372436E+000  0.16275642761E-004  0.18715210567E+000  0.61248101204E-001  0.00000000000E+000  0.12416775609E+001  0.99941132900E+003  0.10000149185E-002
                    0.37500000000E-001  0.00000000000E+000 -0.13500000000E+002                   2  0.10391657400E+006  0.12429438291E+002  0.49985701427E+000  0.50014298573E+000  0.86820897973E-002  0.99131791020E+000  0.99998352766E+000  0.16472344251E-004  0.18732131575E+000  0.61183378704E-001  0.00000000000E+000  0.12607742412E+001  0.99955446445E+003  0.10000149277E-002
                    0.37500000000E-001  0.00000000000E+000 -0.18500000000E+002                   2  0.10607093420E+006  0.12769461457E+002  0.49993236698E+000  0.50006763302E+000  0.86978537774E-002  0.99130214622E+000  0.99998318658E+000  0.16813416498E-004  0.18741546944E+000  0.61147400131E-001  0.00000000000E+000  0.12853697315E+001  0.99951539673E+003  0.10000149389E-002
                    0.37500000000E-001  0.00000000000E+000 -0.23500000000E+002                   2  0.10937134008E+006  0.12601618419E+002  0.50005926978E+000  0.49994073022E+000  0.83412087197E-002  0.99165879128E+000  0.99998265347E+000  0.17346530278E-004  0.18757409546E+000  0.61086841544E-001  0.00000000000E+000  0.13264277582E+001  0.99953691151E+003  0.10000149501E-002
                    0.37500000000E-001  0.00000000000E+000 -0.28500000000E+002                   2  0.20718921181E+006  0.13926102358E+002  0.50171425109E+000  0.49828574891E+000  0.47907513238E-002  0.99520924868E+000  0.99996695110E+000  0.33048899821E-004  0.18964970132E+000  0.60300923866E-001  0.00000000000E+000  0.25065137287E+001  0.99941479726E+003  0.10010751825E-002
                    0.37500000000E-001  0.00000000000E+000 -0.33500000000E+002                   2  0.13442120850E+006  0.13794459407E+002  0.50048551777E+000  0.49951448223E+000  0.73325158009E-002  0.99266748420E+000  0.99997864585E+000  0.21354150618E-004  0.18810744969E+000  0.60883742090E-001  0.00000000000E+000  0.16244384779E+001  0.99939865764E+003  0.10003523911E-002
                    0.37500000000E-001  0.00000000000E+000 -0.38500000000E+002                   2  0.17224421401E+006  0.13901495411E+002  0.50099382384E+000  0.49900617616E+000  0.57568538819E-002  0.99424314612E+000  0.99997256783E+000  0.27432167457E-004  0.18874459469E+000  0.60642163219E-001  0.00000000000E+000  0.20827220138E+001  0.99940188267E+003  0.10007369893E-002
                    0.37500000000E-001  0.00000000000E+000 -0.42250000000E+002                   2  0.19418519593E+006  0.14751491487E+002  0.50128660957E+000  0.49871339043E+000  0.53942208576E-002  0.99460577914E+000  0.99996905541E+000  0.30944585101E-004  0.18911214172E+000  0.60503318702E-001  0.00000000000E+000  0.23416066952E+001  0.99929288090E+003  0.10009488880E-002
                    0.37500000000E-001  0.00000000000E+000 -0.44250000000E+002                   2  0.20215080752E+006  0.13646230170E+002  0.50164716474E+000  0.49835283526E+000  0.48216678620E-002  0.99517833214E+000  0.99996775638E+000  0.32243623160E-004  0.18956531486E+000  0.60332643150E-001  0.00000000000E+000  0.24479011715E+001  0.99944979814E+003  0.10010404774E-002
                    0.37500000000E-001  0.00000000000E+000 -0.45500000000E+002                   2  0.20687821179E+006  0.12279571584E+002  0.50193237522E+000  0.49806762478E+000  0.43069065277E-002  0.99569309347E+000  0.99996697502E+000  0.33024978392E-004  0.18992422073E+000  0.60197872814E-001  0.00000000000E+000  0.25179239188E+001  0.99961982382E+003  0.10011021635E-002
                    0.37500000000E-001  0.00000000000E+000 -0.46500000000E+002                   2  0.21175498239E+006  0.12288594028E+002  0.50210022046E+000  0.49789977954E+000  0.42099700772E-002  0.99579002992E+000  0.99996619126E+000  0.33808743757E-004  0.19013561363E+000  0.60118659757E-001  0.00000000000E+000  0.25773489189E+001  0.99962107796E+003  0.10011567629E-002
                    0.37500000000E-001  0.00000000000E+000 -0.47500000000E+002                   2  0.21692583866E+006  0.12317738754E+002  0.50229571653E+000  0.49770428347E+000  0.41172760221E-002  0.99588272398E+000  0.99996536052E+000  0.34639476228E-004  0.19038199789E+000  0.60026489310E-001  0.00000000000E+000  0.26401637860E+001  0.99962016977E+003  0.10012106633E-002
                    0.37500000000E-001  0.00000000000E+000 -0.48500000000E+002                   2  0.22214482072E+006  0.12349577862E+002  0.50248073820E+000  0.49751926180E+000  0.40287617188E-002  0.99597123828E+000  0.99996452210E+000  0.35477902424E-004  0.19061534624E+000  0.59939348527E-001  0.00000000000E+000  0.27035262559E+001  0.99961896289E+003  0.10012645611E-002
                    0.37500000000E-001  0.00000000000E+000 -0.49500000000E+002                   2  0.22720507355E+006  0.12378600545E+002  0.50265525980E+000  0.49734474020E+000  0.39463644154E-002  0.99605363558E+000  0.99996370914E+000  0.36290855570E-004  0.19083559902E+000  0.59857234348E-001  0.00000000000E+000  0.27649668124E+001  0.99961799213E+003  0.10013184605E-002
                    0.37500000000E-001  0.00000000000E+000 -0.50500000000E+002                   2  0.23132268273E+006  0.12396739300E+002  0.50283168234E+000  0.49716831766E+000  0.38805901862E-002  0.99611940981E+000  0.99996304755E+000  0.36952450967E-004  0.19105839595E+000  0.59774305956E-001  0.00000000000E+000  0.28150091301E+001  0.99961782605E+003  0.10013645611E-002
                    0.37500000000E-001  0.00000000000E+000 -0.51500000000E+002                   2  0.13151605273E+006  0.12408887701E+002  0.32010661273E-002  0.99679893387E+000  0.68432381625E-002  0.99315676184E+000  0.99997909090E+000  0.20909100192E-004  0.00000000000E+000  0.97218183447E+000  0.00000000000E+000  0.15975129646E+001  0.99956974645E+003  0.10001986482E-002
                    0.37500000000E-001  0.00000000000E+000 -0.52500000000E+002                   2  0.76017122352E+005  0.12427867928E+002  0.27881475361E-002  0.99721185246E+000  0.11890284809E-001  0.98810971519E+000  0.99998801231E+000  0.11987691039E-004  0.00000000000E+000  0.97511267302E+000  0.00000000000E+000  0.92050657296E+000  0.99954159721E+003  0.99951106686E-003
                    0.37500000000E-001  0.00000000000E+000 -0.53500000000E+002                   2  0.57790740575E+005  0.12456859077E+002  0.27767130330E-002  0.99722328697E+000  0.15706137444E-001  0.98429386256E+000  0.99999094255E+000  0.90574545724E-005  0.00000000000E+000  0.97519500436E+000  0.00000000000E+000  0.69812524404E+000  0.99952971829E+003  0.99922853344E-003
                    0.37500000000E-001  0.00000000000E+000 -0.54500000000E+002                   2  0.52995708970E+005  0.12485870596E+002  0.29617284065E-002  0.99703827159E+000  0.17175046316E-001  0.98282495368E+000  0.99999171377E+000  0.82862346669E-005  0.00000000000E+000  0.97387083892E+000  0.00000000000E+000  0.63957100888E+000  0.99952410861E+003  0.99907941535E-003
                    0.37500000000E-001  0.00000000000E+000 -0.55500000000E+002                   2  0.51721389682E+005  0.12515850640E+002  0.31496068550E-002  0.99685039315E+000  0.17637803319E-001  0.98236219668E+000  0.99999191906E+000  0.80809358484E-005  0.00000000000E+000  0.97254280910E+000  0.00000000000E+000  0.62395334697E+000  0.99952002155E+003  0.99896858580E-003
                    0.37500000000E-001  0.00000000000E+000 -0.56500000000E+002                   2  0.51081694713E+005  0.12574884197E+002  0.33460641165E-002  0.99665393588E+000  0.17931217102E-001  0.98206878290E+000  0.99999202280E+000  0.79772031995E-005  0.00000000000E+000  0.97117081771E+000  0.00000000000E+000  0.61600054137E+000  0.99951281339E+003  0.99886334619E-003
                    0.37500000000E-001  0.00000000000E+000 -0.57750000000E+002                   2  0.50745805617E+005  0.14026538954E+002  0.35061583555E-002  0.99649384164E+000  0.19867489134E-001  0.98013251087E+000  0.99999210003E+000  0.78999654036E-005  0.00000000000E+000  0.97006459199E+000  0.00000000000E+000  0.60815157447E+000  0.99932848712E+003  0.99882284206E-003
                    0.37500000000E-001  0.00000000000E+000 -0.59750000000E+002                   2  0.50846461364E+005  0.15236919013E+002  0.34783521448E-002  0.99652164786E+000  0.21461633972E-001  0.97853836603E+000  0.99999210476E+000  0.78952362244E-005  0.00000000000E+000  0.97025599506E+000  0.00000000000E+000  0.60622258303E+000  0.99915451564E+003  0.99865171826E-003
                    0.37500000000E-001  0.00000000000E+000 -0.63500000000E+002                   2  0.50531258662E+005  0.14533525072E+002  0.35422847005E-002  0.99645771530E+000  0.20627518078E-001  0.97937248192E+000  0.99999214311E+000  0.78568943780E-005  0.00000000000E+000  0.96981636816E+000  0.00000000000E+000  0.60423853267E+000  0.99925772203E+003  0.99828954679E-003
                    0.37500000000E-001  0.00000000000E+000 -0.68500000000E+002                   2  0.50995815682E+005  0.14642516837E+002  0.34583657077E-002  0.99654163429E+000  0.20583570255E-001  0.97941642975E+000  0.99999207031E+000  0.79296917783E-005  0.00000000000E+000  0.97039375907E+000  0.00000000000E+000  0.60957876199E+000  0.99924232466E+003  0.99780630651E-003
                    0.37500000000E-001  0.00000000000E+000 -0.76000000000E+002                   2  0.52593479655E+005  0.15434559951E+002  0.28736327198E-002  0.99712636728E+000  0.21008235799E-001  0.97899176420E+000  0.99999182749E+000  0.81725084157E-005  0.00000000000E+000  0.97449924434E+000  0.00000000000E+000  0.62679235325E+000  0.99912518545E+003  0.99708768142E-003
                    0.37500000000E-001  0.00000000000E+000 -0.86000000000E+002                   2  0.54703790087E+005  0.15587527221E+002  0.22442147848E-002  0.99775578522E+000  0.20389493489E-001  0.97961050651E+000  0.99999149105E+000  0.85089535932E-005  0.00000000000E+000  0.97910917069E+000  0.00000000000E+000  0.65183846696E+000  0.99910250674E+003  0.99613191063E-003
                    0.37500000000E-001  0.00000000000E+000 -0.93500000000E+002                   2  0.56000462816E+005  0.15631504291E+002  0.19229795004E-002  0.99807702050E+000  0.19968594583E-001  0.98003140542E+000  0.99999128342E+000  0.87165844925E-005  0.00000000000E+000  0.98155767341E+000  0.00000000000E+000  0.66735590713E+000  0.99909625236E+003  0.99541513349E-003
                    0.37500000000E-001  0.00000000000E+000 -0.97500000000E+002                   2  0.55379781951E+005  0.14337006613E+002  0.19422150608E-002  0.99805778494E+000  0.18560727492E-001  0.98143927251E+000  0.99999136037E+000  0.86396268809E-005  0.00000000000E+000  0.98140892380E+000  0.00000000000E+000  0.66348919270E+000  0.99928774662E+003  0.99501302614E-003
                    0.37500000000E-001  0.00000000000E+000 -0.10000000000E+003                   2  0.54003775535E+005  0.12707106687E+002  0.23982076642E-002  0.99760179234E+000  0.17100284909E-001  0.98289971509E+000  0.99999155512E+000  0.84448751792E-005  0.00000000000E+000  0.97796014935E+000  0.00000000000E+000  0.65126167139E+000  0.99949853706E+003  0.99472547030E-003
                    0.37500000000E-001  0.00000000000E+000 -0.10200000000E+003                   1  0.10394278679E+007  0.17611298455E+002  0.00000000000E+000  0.10000000000E+001  0.00000000000E+000  0.00000000000E+000  0.99999000000E+000  0.99999997474E-005  0.00000000000E+000  0.10000000000E+001  0.00000000000E+000  0.12442271737E+002  0.99921402406E+003  0.30131854039E+000
                    0.37500000000E-001  0.00000000000E+000 -0.10500000000E+003                   1  0.10462735671E+007  0.17756434671E+002  0.00000000000E+000  0.10000000000E+001  0.00000000000E+000  0.00000000000E+000  0.99999000000E+000  0.99999997474E-005  0.00000000000E+000  0.10000000000E+001  0.00000000000E+000  0.12517944804E+002  0.99919074683E+003  0.30125116079E+000
                    0.37500000000E-001  0.00000000000E+000 -0.11100000000E+003                   1  0.10588041952E+007  0.17880162921E+002  0.00000000000E+000  0.10000000000E+001  0.00000000000E+000  0.00000000000E+000  0.99999000000E+000  0.99999997474E-005  0.00000000000E+000  0.10000000000E+001  0.00000000000E+000  0.12662517732E+002  0.99917376929E+003  0.30110819901E+000
                    0.37500000000E-001  0.00000000000E+000 -0.12300000000E+003                   1  0.10932633404E+007  0.18128057849E+002  0.00000000000E+000  0.10000000000E+001  0.00000000000E+000  0.00000000000E+000  0.99999000000E+000  0.99999997474E-005  0.00000000000E+000  0.10000000000E+001  0.00000000000E+000  0.13063652037E+002  0.99914348466E+003  0.30085647078E+000
                    0.37500000000E-001  0.00000000000E+000 -0.14700000000E+003                   1  0.11749638189E+007  0.18628205942E+002  0.00000000000E+000  0.10000000000E+001  0.00000000000E+000  0.00000000000E+000  0.99999000000E+000  0.99999997474E-005  0.00000000000E+000  0.10000000000E+001  0.00000000000E+000  0.14016245032E+002  0.99908573490E+003  0.30039861920E+000
                    0.37500000000E-001  0.00000000000E+000 -0.19500000000E+003                   3  0.17239717465E+007  0.19625000000E+002  0.00000000000E+000  0.10000000000E+001  0.00000000000E+000  0.00000000000E+000  0.99999000000E+000  0.99999997474E-005  0.00000000000E+000  0.10000000000E+001  0.00000000000E+000  0.20499272522E+002  0.99913720004E+003  0.30063500999E+000
                    0.37500000000E-001  0.00000000000E+000 -0.50000000000E-005                   5  0.10132500000E+006  0.15000000000E+002  0.10000000000E+001  0.00000000000E+000  0.52499771120E-002  0.99475002289E+000  0.00000000000E+000  0.00000000000E+000  0.10000000000E+001  0.00000000000E+000  0.00000000000E+000  0.12208885817E+001  0.99921336741E+003  0.99000001000E+000
                    0.37500000000E-001  0.00000000000E+000 -0.25000000000E+000                   4  0.10168421024E+006  0.15012822528E+002  0.89206030659E+000  0.10793969341E+000  0.10508732074E-001  0.98949126793E+000  0.99998392889E+000  0.16071107330E-004  0.98015271189E+000  0.43964152131E-006 -0.17542934546E+006  0.12212866935E+001  0.99921162906E+003  0.30000001019E+000
                    0.37500000000E-001  0.00000000000E+000 -0.75000000000E+000                   4  0.10152739023E+006  0.14885227238E+002  0.89610577406E+000  0.10389422594E+000  0.10438316089E-001  0.98956168391E+000  0.99998395186E+000  0.16048143222E-004  0.99026466527E+000  0.51857587792E-007 -0.19005710996E+006  0.12199949977E+001  0.99923041800E+003  0.30000007028E+000
                    0.79290000000E-001  0.00000000000E+000 -0.25000000000E+000                   1  0.10138621733E+006  0.15009991449E+002  0.89664091286E+000  0.10335908714E+000  0.10537882021E-001  0.98946211798E+000  0.99998397674E+000  0.16023256701E-004  0.99160242989E+000  0.33281003453E-007 -0.19214386713E+006  0.12176982093E+001  0.99921191187E+003  0.30000001014E+000
                    0.79290000000E-001  0.00000000000E+000 -0.75000000000E+000                   1  0.10149953850E+006  0.14871192892E+002  0.89606760860E+000  0.10393239140E+000  0.10431692769E-001  0.98956830723E+000  0.99998395609E+000  0.16043912031E-004  0.99016925845E+000  0.53397419586E-007 -0.18990972560E+006  0.12197246035E+001  0.99923246741E+003  0.30000007042E+000
                    0.79290000000E-001  0.00000000000E+000 -0.15000000000E+001                   1  0.10166540719E+006  0.65970762776E+001  0.89299141971E+000  0.10700858029E+000  0.59840317440E-002  0.99401596826E+000  0.99998381433E+000  0.16185668272E-004  0.98247988817E+000  0.30237348027E-006 -0.17862644206E+006  0.12612276282E+001  0.99998925178E+003  0.30000004085E+000
                    0.79290000000E-001  0.00000000000E+000 -0.27500000000E+001                   1  0.10195388384E+006  0.93885937915E+001  0.89171181206E+000  0.10828818794E+000  0.72218645136E-002  0.99277813549E+000  0.99998380072E+000  0.16199280333E-004  0.97928174265E+000  0.50012579619E-006 -0.17425713230E+006  0.12513750681E+001  0.99984208482E+003  0.30000010157E+000
                    0.79290000000E-001  0.00000000000E+000 -0.47500000000E+001                   1  0.10242819678E+006  0.11763901957E+002  0.89071904734E+000  0.10928095266E+000  0.84289033389E-002  0.99157109666E+000  0.99998375696E+000  0.16243036875E-004  0.97680072298E+000  0.70228902059E-006 -0.17098821229E+006  0.12458090977E+001  0.99962776120E+003  0.30000019272E+000
                    0.79290000000E-001  0.00000000000E+000 -0.85000000000E+001                   1  0.10338590427E+006  0.13652275656E+002  0.88862183283E+000  0.11137816717E+000  0.94579637246E-002  0.99054203628E+000  0.99998363225E+000  0.16367752585E-004  0.97156029526E+000  0.12943094995E-005 -0.16440838838E+006  0.12484045297E+001  0.99940305773E+003  0.30000031492E+000
                    0.79290000000E-001  0.00000000000E+000 -0.13500000000E+002                   1  0.10500172841E+006  0.12548502567E+002  0.88117368408E+000  0.11882631592E+000  0.86597367999E-002  0.99134026320E+000  0.99998335504E+000  0.16644957237E-004  0.95295996841E+000  0.58673417926E-005 -0.14412623287E+006  0.12734262779E+001  0.99954111261E+003  0.30000049804E+000
                    0.79290000000E-001  0.00000000000E+000 -0.18500000000E+002                   1  0.10723800424E+006  0.12883103853E+002  0.86016338256E+000  0.13983661744E+000  0.86673503892E-002  0.99133264961E+000  0.99998300075E+000  0.16999245600E-004  0.90064925697E+000  0.55728317434E-004 -0.10470565952E+006  0.12990199808E+001  0.99950220887E+003  0.30000071143E+000
                    0.79290000000E-001  0.00000000000E+000 -0.23500000000E+002                   1  0.11082790341E+006  0.12726935232E+002  0.77379648661E+000  0.22620351339E+000  0.82993454992E-002  0.99170065450E+000  0.99998242127E+000  0.17578729856E-004  0.69172377419E+000  0.17961996113E-002 -0.43482842857E+005  0.13435374027E+001  0.99952271398E+003  0.30002011626E+000
                    0.79290000000E-001  0.00000000000E+000 -0.28500000000E+002                   1  0.22857654668E+006  0.14005562525E+002  0.15957574106E+000  0.84042425894E+000  0.43638371982E-002  0.99563616280E+000  0.99996351458E+000  0.36485416698E-004  0.79522268584E-003  0.45209899035E+000 -0.28466969162E+004  0.27651997211E+001  0.99941394634E+003  0.30038068677E+000
                    0.79290000000E-001  0.00000000000E+000 -0.33500000000E+002                   1  0.39477194341E+006  0.13883177791E+002  0.24807758519E-001  0.97519224148E+000  0.25038733730E-002  0.99749612663E+000  0.99993679831E+000  0.63201688825E-004  0.00000000000E+000  0.85769022922E+000 -0.78952501602E+003  0.47831592504E+001  0.99950774198E+003  0.30088046717E+000
                    0.79290000000E-001  0.00000000000E+000 -0.38500000000E+002                   1  0.51094074871E+006  0.13990087891E+002  0.19533283396E-001  0.98046671660E+000  0.19474143484E-002  0.99805258565E+000  0.99991812744E+000  0.81872561408E-004  0.00000000000E+000  0.88198479423E+000 -0.68002715750E+003  0.61904705693E+001  0.99954716644E+003  0.30122899172E+000
                    0.79290000000E-001  0.00000000000E+000 -0.42250000000E+002                   1  0.57233305488E+006  0.14814405179E+002  0.14993434906E-001  0.98500656509E+000  0.18336831781E-002  0.99816631682E+000  0.99990827357E+000  0.91726428379E-004  0.00000000000E+000  0.90421644225E+000 -0.57732334246E+003  0.69149161814E+001  0.99945869586E+003  0.30141319316E+000
                    0.79290000000E-001  0.00000000000E+000 -0.44250000000E+002                   1  0.60337673405E+006  0.13750322907E+002  0.12349585892E-001  0.98765041411E+000  0.16232537911E-002  0.99837674621E+000  0.99990326576E+000  0.96734239107E-004  0.00000000000E+000  0.91788075424E+000 -0.51239480918E+003  0.73179544798E+001  0.99962250586E+003  0.30150850197E+000
                    0.79290000000E-001  0.00000000000E+000 -0.45500000000E+002                   1  0.62246228840E+006  0.12434773366E+002  0.10793019790E-001  0.98920698021E+000  0.14436051988E-002  0.99855639480E+000  0.99990017725E+000  0.99822751034E-004  0.00000000000E+000  0.92623127892E+000 -0.47179816818E+003  0.75850312383E+001  0.99979624291E+003  0.30156601268E+000
                    0.79290000000E-001  0.00000000000E+000 -0.46500000000E+002                   1  0.63766489397E+006  0.12443966572E+002  0.98993405811E-002  0.99010065942E+000  0.14100113251E-002  0.99858998867E+000  0.99989773382E+000  0.10226618245E-003  0.00000000000E+000  0.93114466283E+000 -0.44751585674E+003  0.77701909927E+001  0.99980227162E+003  0.30161099393E+000
                    0.79290000000E-001  0.00000000000E+000 -0.47500000000E+002                   1  0.65285434780E+006  0.12473341190E+002  0.92717386417E-002  0.99072826136E+000  0.13798420687E-002  0.99862015793E+000  0.99989529281E+000  0.10470718751E-003  0.00000000000E+000  0.93465280954E+000 -0.42997444929E+003  0.79546075348E+001  0.99980592710E+003  0.30165664509E+000
                    0.79290000000E-001  0.00000000000E+000 -0.48500000000E+002                   1  0.66800175173E+006  0.12504845389E+002  0.88148854744E-002  0.99118511453E+000  0.13513245380E-002  0.99864867546E+000  0.99989285860E+000  0.10714139594E-003  0.00000000000E+000  0.93723871621E+000 -0.41692567795E+003  0.81384117960E+001  0.99980929876E+003  0.30170293629E+000
                    0.79290000000E-001  0.00000000000E+000 -0.49500000000E+002                   1  0.68300174475E+006  0.12533894577E+002  0.83351371238E-002  0.99166486288E+000  0.13241498214E-002  0.99867585018E+000  0.99989044806E+000  0.10955194286E-003  0.00000000000E+000  0.93998531983E+000 -0.40294728698E+003  0.83204508577E+001  0.99981287654E+003  0.30174402683E+000
                    0.79290000000E-001  0.00000000000E+000 -0.50500000000E+002                   1  0.69749775027E+006  0.12552025147E+002  0.41714102094E-002  0.99582858979E+000  0.12981548204E-002  0.99870184518E+000  0.99988811836E+000  0.11188164499E-003  0.00000000000E+000  0.96556969100E+000 -0.26478721740E+003  0.84966384017E+001  0.99981750009E+003  0.30178679664E+000
                    0.79290000000E-001  0.00000000000E+000 -0.51500000000E+002                   1  0.71136979717E+006  0.12564544108E+002  0.00000000000E+000  0.10000000000E+001  0.00000000000E+000  0.00000000000E+000  0.99997662606E+000  0.23373944405E-004  0.00000000000E+000  0.10000000000E+001  0.00000000000E+000  0.86653699166E+001  0.99982249276E+003  0.30181567658E+000
                    0.79290000000E-001  0.00000000000E+000 -0.52500000000E+002                   1  0.72510470391E+006  0.12583473536E+002  0.00000000000E+000  0.10000000000E+001  0.00000000000E+000  0.00000000000E+000  0.99998600472E+000  0.13995281199E-004  0.00000000000E+000  0.10000000000E+001  0.00000000000E+000  0.88322139155E+001  0.99982665636E+003  0.30183033648E+000
                    0.79290000000E-001  0.00000000000E+000 -0.53500000000E+002                   1  0.73840754185E+006  0.12612443059E+002  0.00000000000E+000  0.10000000000E+001  0.00000000000E+000  0.00000000000E+000  0.99998912481E+000  0.10875190578E-004  0.00000000000E+000  0.10000000000E+001  0.00000000000E+000  0.89934488914E+001  0.99982941490E+003  0.30184103637E+000
                    0.79290000000E-001  0.00000000000E+000 -0.54500000000E+002                   1  0.75127856215E+006  0.12641482289E+002  0.00000000000E+000  0.10000000000E+001  0.00000000000E+000  0.00000000000E+000  0.99998985312E+000  0.10146875713E-004  0.00000000000E+000  0.10000000000E+001  0.00000000000E+000  0.91493861735E+001  0.99983195083E+003  0.30185042643E+000
                    0.79290000000E-001  0.00000000000E+000 -0.55500000000E+002                   1  0.76372813647E+006  0.12671408364E+002  0.00000000000E+000  0.10000000000E+001  0.00000000000E+000  0.00000000000E+000  0.99998998080E+000  0.10019204884E-004  0.00000000000E+000  0.10000000000E+001  0.00000000000E+000  0.93001267036E+001  0.99983417083E+003  0.30185829684E+000
                    0.79290000000E-001  0.00000000000E+000 -0.56500000000E+002                   1  0.77577004938E+006  0.12730354349E+002  0.00000000000E+000  0.10000000000E+001  0.00000000000E+000  0.00000000000E+000  0.99998999761E+000  0.10002392514E-004  0.00000000000E+000  0.10000000000E+001  0.00000000000E+000  0.94448966741E+001  0.99983268273E+003  0.30186407714E+000
                    0.79290000000E-001  0.00000000000E+000 -0.57750000000E+002                   1  0.79031904345E+006  0.14130248735E+002  0.00000000000E+000  0.10000000000E+001  0.00000000000E+000  0.00000000000E+000  0.99998999987E+000  0.10000129759E-004  0.00000000000E+000  0.10000000000E+001  0.00000000000E+000  0.95746253149E+001  0.99965747624E+003  0.30187036787E+000
                    0.79290000000E-001  0.00000000000E+000 -0.59750000000E+002                   1  0.81244680480E+006  0.15299139296E+002  0.00000000000E+000  0.10000000000E+001  0.00000000000E+000  0.00000000000E+000  0.99999000000E+000  0.10000002431E-004  0.00000000000E+000  0.10000000000E+001  0.00000000000E+000  0.98024458076E+001  0.99949681926E+003  0.30187751941E+000
                    0.79290000000E-001  0.00000000000E+000 -0.63500000000E+002                   1  0.85054524924E+006  0.14619394201E+002  0.00000000000E+000  0.10000000000E+001  0.00000000000E+000  0.00000000000E+000  0.99999000000E+000  0.99999997021E-005  0.00000000000E+000  0.10000000000E+001  0.00000000000E+000  0.10287068291E+002  0.99961590009E+003  0.30188646302E+000
                    0.79290000000E-001  0.00000000000E+000 -0.68500000000E+002                   1  0.89306340018E+006  0.14728368557E+002  0.00000000000E+000  0.10000000000E+001  0.00000000000E+000  0.00000000000E+000  0.99999000000E+000  0.99999997036E-005  0.00000000000E+000  0.10000000000E+001  0.00000000000E+000  0.10797548688E+002  0.99961967523E+003  0.30186582027E+000
                    0.79290000000E-001  0.00000000000E+000 -0.76000000000E+002                   1  0.94612205424E+006  0.15496577508E+002  0.00000000000E+000  0.10000000000E+001  0.00000000000E+000  0.00000000000E+000  0.99999000000E+000  0.99999997086E-005  0.00000000000E+000  0.10000000000E+001  0.00000000000E+000  0.11408675354E+002  0.99952792792E+003  0.30179782358E+000
                    0.79290000000E-001  0.00000000000E+000 -0.86000000000E+002                   1  0.99371060596E+006  0.15650578918E+002  0.00000000000E+000  0.10000000000E+001  0.00000000000E+000  0.00000000000E+000  0.99999000000E+000  0.99999997156E-005  0.00000000000E+000  0.10000000000E+001  0.00000000000E+000  0.11976448731E+002  0.99952567775E+003  0.30165222565E+000
                    0.79290000000E-001  0.00000000000E+000 -0.93500000000E+002                   1  0.10177756950E+007  0.15701358811E+002  0.00000000000E+000  0.10000000000E+001  0.00000000000E+000  0.00000000000E+000  0.99999000000E+000  0.99999997200E-005  0.00000000000E+000  0.10000000000E+001  0.00000000000E+000  0.12264500226E+002  0.99952872364E+003  0.30150806233E+000
                    0.79290000000E-001  0.00000000000E+000 -0.97500000000E+002                   1  0.10286040969E+007  0.14453749259E+002  0.00000000000E+000  0.10000000000E+001  0.00000000000E+000  0.00000000000E+000  0.99999000000E+000  0.99999997183E-005  0.00000000000E+000  0.10000000000E+001  0.00000000000E+000  0.12449468856E+002  0.99972220180E+003  0.30141556109E+000
                    0.79290000000E-001  0.00000000000E+000 -0.10000000000E+003                   1  0.10347950236E+007  0.12882221217E+002  0.00000000000E+000  0.10000000000E+001  0.00000000000E+000  0.00000000000E+000  0.99999000000E+000  0.99999997143E-005  0.00000000000E+000  0.10000000000E+001  0.00000000000E+000  0.12593990788E+002  0.99993488416E+003  0.30136043653E+000
                    0.79290000000E-001  0.00000000000E+000 -0.10200000000E+003                   1  0.10394337475E+007  0.17611736823E+002  0.00000000000E+000  0.10000000000E+001  0.00000000000E+000  0.00000000000E+000  0.99999000000E+000  0.99999997474E-005  0.00000000000E+000  0.10000000000E+001  0.00000000000E+000  0.12442323159E+002  0.99921394735E+003  0.30131860041E+000