 VARIABLES       =                 X                 Y                 Z              ROCK              PRES              TEMP             SAT_G             SAT_L         X_WATER_G           X_AIR_G         X_WATER_L           X_AIR_L             REL_G             REL_L           PCAP_GL             DEN_G             DEN_L               POR
 ZONE T=" 0.6000000E+02 SEC"  I =        9 J =        0 K =       30
                    0.37500000000E-001  0.00000000000E+000 -0.15000000000E+001                   2  0.10678155580E+006  0.21060300751E+002  0.49917927383E+000  0.50082072617E+000  0.14678726338E-001  0.98532127366E+000  0.99998323637E+000  0.16763625087E-004  0.18647567101E+000  0.61507646513E-001  0.00000000000E+000  0.12530086199E+001  0.99810086903E+003  0.10000545865E-002
                    0.37500000000E-001  0.00000000000E+000 -0.27500000000E+001                   2  0.10687826738E+006  0.21959350535E+002  0.49911984873E+000  0.50088015127E+000  0.15503594101E-001  0.98449640590E+000  0.99998324352E+000  0.16756484523E-004  0.18640162653E+000  0.61536136078E-001  0.00000000000E+000  0.12497054276E+001  0.99790084417E+003  0.10000555051E-002
                    0.37500000000E-001  0.00000000000E+000 -0.47500000000E+001                   2  0.10699490166E+006  0.22869190913E+002  0.49905997688E+000  0.50094002312E+000  0.16376789161E-001  0.98362321084E+000  0.99998324886E+000  0.16751139645E-004  0.18632704213E+000  0.61564849187E-001  0.00000000000E+000  0.12465725928E+001  0.99768985795E+003  0.10000567325E-002
                    0.37500000000E-001  0.00000000000E+000 -0.85000000000E+001                   2  0.10713549960E+006  0.23780588411E+002  0.49899664635E+000  0.50100335365E+000  0.17290741291E-001  0.98270925871E+000  0.99998325159E+000  0.16748413940E-004  0.18624816744E+000  0.61595231222E-001  0.00000000000E+000  0.12436997573E+001  0.99747005007E+003  0.10000580906E-002
                    0.37500000000E-001  0.00000000000E+000 -0.13500000000E+002                   2  0.10729313872E+006  0.24691006727E+002  0.49893865352E+000  0.50106134648E+000  0.18245265928E-001  0.98175473407E+000  0.99998325279E+000  0.16747214867E-004  0.18617595703E+000  0.61623061794E-001  0.00000000000E+000  0.12410147610E+001  0.99724218557E+003  0.10000596698E-002
                    0.37500000000E-001  0.00000000000E+000 -0.18500000000E+002                   2  0.10744212319E+006  0.25580768553E+002  0.49888845944E+000  0.50111154056E+000  0.19223515722E-001  0.98077648428E+000  0.99998325602E+000  0.16743980813E-004  0.18611347005E+000  0.61647156894E-001  0.00000000000E+000  0.12383133833E+001  0.99701162398E+003  0.10000610626E-002
                    0.37500000000E-001  0.00000000000E+000 -0.23500000000E+002                   2  0.10756685101E+006  0.26430071091E+002  0.49884691582E+000  0.50115308418E+000  0.20203344193E-001  0.97979665581E+000  0.99998326311E+000  0.16736889619E-004  0.18606176103E+000  0.61667104437E-001  0.00000000000E+000  0.12355141625E+001  0.99678441685E+003  0.10000624131E-002
                    0.37500000000E-001  0.00000000000E+000 -0.28500000000E+002                   2  0.10748206240E+006  0.26974784448E+002  0.49885192442E+000  0.50114807558E+000  0.20887051311E-001  0.97911294869E+000  0.99998329478E+000  0.16705218963E-004  0.18606799477E+000  0.61664699272E-001  0.00000000000E+000  0.12317976195E+001  0.99663501475E+003  0.10000615678E-002
                    0.37500000000E-001  0.00000000000E+000 -0.33500000000E+002                   2  0.14321021022E+006  0.27598420615E+002  0.49925106714E+000  0.50074893286E+000  0.16214668612E-001  0.98378533139E+000  0.99997757299E+000  0.22427009000E-004  0.18656514853E+000  0.61473239729E-001  0.00000000000E+000  0.16424435104E+001  0.99647652842E+003  0.10004189749E-002
                    0.37500000000E-001  0.00000000000E+000 -0.38500000000E+002                   2  0.18355248521E+006  0.28427873965E+002  0.49967594499E+000  0.50032405501E+000  0.13254432729E-001  0.98674556727E+000  0.99997111763E+000  0.28882370627E-004  0.18709517736E+000  0.61269894364E-001  0.00000000000E+000  0.21030617232E+001  0.99625690598E+003  0.10008226401E-002
                    0.37500000000E-001  0.00000000000E+000 -0.42250000000E+002                   2  0.20670321716E+006  0.29251581792E+002  0.49991376609E+000  0.50008623391E+000  0.12338762898E-001  0.98766123710E+000  0.99996742674E+000  0.32573258750E-004  0.18739222504E+000  0.61156280094E-001  0.00000000000E+000  0.23631625134E+001  0.99602502551E+003  0.10010543155E-002
                    0.37500000000E-001  0.00000000000E+000 -0.44250000000E+002                   2  0.21685289833E+006  0.30071563217E+002  0.50000992544E+000  0.49999007456E+000  0.12330126233E-001  0.98766987377E+000  0.99996582681E+000  0.34173187432E-004  0.18751240703E+000  0.61110383883E-001  0.00000000000E+000  0.24725114379E+001  0.99578239219E+003  0.10011560556E-002
                    0.37500000000E-001  0.00000000000E+000 -0.45500000000E+002                   2  0.22388602616E+006  0.30890274153E+002  0.50007366104E+000  0.49992633896E+000  0.12517408669E-001  0.98748259133E+000  0.99996472911E+000  0.35270889076E-004  0.18759208901E+000  0.61079976631E-001  0.00000000000E+000  0.25455447360E+001  0.99553281788E+003  0.10012263875E-002
                    0.37500000000E-001  0.00000000000E+000 -0.46500000000E+002                   2  0.22993117779E+006  0.31708527449E+002  0.50012903061E+000  0.49987096939E+000  0.12771295229E-001  0.98722870477E+000  0.99996379156E+000  0.36208442055E-004  0.18766132729E+000  0.61053569293E-001  0.00000000000E+000  0.26068663185E+001  0.99527710489E+003  0.10012869226E-002
                    0.37500000000E-001  0.00000000000E+000 -0.47500000000E+002                   2  0.23631960862E+006  0.32527324680E+002  0.50019035434E+000  0.49980964566E+000  0.13017077601E-001  0.98698292240E+000  0.99996280025E+000  0.37199746043E-004  0.18773802786E+000  0.61024331595E-001  0.00000000000E+000  0.26717284797E+001  0.99501560972E+003  0.10013508841E-002
                    0.37500000000E-001  0.00000000000E+000 -0.48500000000E+002                   2  0.24284861578E+006  0.33346186468E+002  0.50025473495E+000  0.49974526505E+000  0.13265975340E-001  0.98673402466E+000  0.99996178781E+000  0.38212189565E-004  0.18781857078E+000  0.60993647021E-001  0.00000000000E+000  0.27378025107E+001  0.99474847114E+003  0.10014162011E-002
                    0.37500000000E-001  0.00000000000E+000 -0.49500000000E+002                   2  0.24921120620E+006  0.34164843538E+002  0.50032019415E+000  0.49967980585E+000  0.13534704813E-001  0.98646529519E+000  0.99996080361E+000  0.39196389549E-004  0.18790048298E+000  0.60962459478E-001  0.00000000000E+000  0.28016007902E+001  0.99447572138E+003  0.10014799799E-002
                    0.37500000000E-001  0.00000000000E+000 -0.50500000000E+002                   2  0.25459354824E+006  0.34980084432E+002  0.50037753721E+000  0.49962246279E+000  0.13865171271E-001  0.98613482873E+000  0.99995997836E+000  0.40021640928E-004  0.18797225558E+000  0.60935148001E-001  0.00000000000E+000  0.28539749738E+001  0.99419819431E+003  0.10015338594E-002
                    0.37500000000E-001  0.00000000000E+000 -0.51500000000E+002                   2  0.35508887725E+006  0.35756984948E+002  0.00000000000E+000  0.10000000000E+001  0.00000000000E+000  0.00000000000E+000  0.99997386128E+000  0.26138718409E-004  0.00000000000E+000  0.10000000000E+001  0.00000000000E+000  0.39788801083E+001  0.99397069515E+003  0.10024910232E-002
                    0.37500000000E-001  0.00000000000E+000 -0.52500000000E+002                   2  0.36503060506E+006  0.36575087500E+002  0.00000000000E+000  0.10000000000E+001  0.00000000000E+000  0.00000000000E+000  0.99998538382E+000  0.14616181945E-004  0.00000000000E+000  0.10000000000E+001  0.00000000000E+000  0.40790355843E+001  0.99368361091E+003  0.10024923798E-002
                    0.37500000000E-001  0.00000000000E+000 -0.53500000000E+002                   2  0.37455490826E+006  0.37393339416E+002  0.00000000000E+000  0.10000000000E+001  0.00000000000E+000  0.00000000000E+000  0.99998900481E+000  0.10995190679E-004  0.00000000000E+000  0.10000000000E+001  0.00000000000E+000  0.41739348446E+001  0.99339097343E+003  0.10024895395E-002
                    0.37500000000E-001  0.00000000000E+000 -0.54500000000E+002                   2  0.38373142279E+006  0.38211585181E+002  0.00000000000E+000  0.10000000000E+001  0.00000000000E+000  0.00000000000E+000  0.99998983640E+000  0.10163596017E-004  0.00000000000E+000  0.10000000000E+001  0.00000000000E+000  0.42643990895E+001  0.99309293444E+003  0.10024833171E-002
                    0.37500000000E-001  0.00000000000E+000 -0.55500000000E+002                   2  0.39256863411E+006  0.39029819247E+002  0.00000000000E+000  0.10000000000E+001  0.00000000000E+000  0.00000000000E+000  0.99998997855E+000  0.10021449270E-004  0.00000000000E+000  0.10000000000E+001  0.00000000000E+000  0.43505565021E+001  0.99278956377E+003  0.10024736976E-002
                    0.37500000000E-001  0.00000000000E+000 -0.56500000000E+002                   2  0.40107492680E+006  0.39848043219E+002  0.00000000000E+000  0.10000000000E+001  0.00000000000E+000  0.00000000000E+000  0.99998999764E+000  0.10002355339E-004  0.00000000000E+000  0.10000000000E+001  0.00000000000E+000  0.44325326618E+001  0.99248092651E+003  0.10024606642E-002
                    0.37500000000E-001  0.00000000000E+000 -0.57750000000E+002                   2  0.41157428002E+006  0.40663061270E+002  0.00000000000E+000  0.10000000000E+001  0.00000000000E+000  0.00000000000E+000  0.99998999987E+000  0.10000128896E-004  0.00000000000E+000  0.10000000000E+001  0.00000000000E+000  0.45362041991E+001  0.99216935245E+003  0.10024431900E-002
                    0.37500000000E-001  0.00000000000E+000 -0.59750000000E+002                   2  0.42944013897E+006  0.41487874002E+002  0.00000000000E+000  0.10000000000E+001  0.00000000000E+000  0.00000000000E+000  0.99999000000E+000  0.10000002476E-004  0.00000000000E+000  0.10000000000E+001  0.00000000000E+000  0.47206735578E+001  0.99185215220E+003  0.10024257903E-002
                    0.37500000000E-001  0.00000000000E+000 -0.63500000000E+002                   2  0.46436955245E+006  0.42320642737E+002  0.00000000000E+000  0.10000000000E+001  0.00000000000E+000  0.00000000000E+000  0.99999000000E+000  0.99999997474E-005  0.00000000000E+000  0.10000000000E+001  0.00000000000E+000  0.50923818181E+001  0.99153419532E+003  0.10024074951E-002
                    0.37500000000E-001  0.00000000000E+000 -0.68500000000E+002                   2  0.51122675407E+006  0.43154321607E+002  0.00000000000E+000  0.10000000000E+001  0.00000000000E+000  0.00000000000E+000  0.99999000000E+000  0.99999997474E-005  0.00000000000E+000  0.10000000000E+001  0.00000000000E+000  0.55934043463E+001  0.99121601997E+003  0.10023861043E-002
                    0.37500000000E-001  0.00000000000E+000 -0.76000000000E+002                   2  0.58271811402E+006  0.44002001541E+002  0.00000000000E+000  0.10000000000E+001  0.00000000000E+000  0.00000000000E+000  0.99999000000E+000  0.99999997474E-005  0.00000000000E+000  0.10000000000E+001  0.00000000000E+000  0.63619775557E+001  0.99089779647E+003  0.10023659559E-002
                    0.37500000000E-001  0.00000000000E+000 -0.86000000000E+002                   2  0.67864352868E+006  0.44858348082E+002  0.00000000000E+000  0.10000000000E+001  0.00000000000E+000  0.00000000000E+000  0.99999000000E+000  0.99999997474E-005  0.00000000000E+000  0.10000000000E+001  0.00000000000E+000  0.73937986634E+001  0.99058148241E+003  0.10023450634E-002
                    0.37500000000E-001  0.00000000000E+000 -0.93500000000E+002                   2  0.74956833642E+006  0.45705227817E+002  0.00000000000E+000  0.10000000000E+001  0.00000000000E+000  0.00000000000E+000  0.99999000000E+000  0.99999997474E-005  0.00000000000E+000  0.10000000000E+001  0.00000000000E+000  0.81471860781E+001  0.99025306877E+003  0.10023193223E-002
                    0.37500000000E-001  0.00000000000E+000 -0.97500000000E+002                   2  0.78534904074E+006  0.46532897254E+002  0.00000000000E+000  0.10000000000E+001  0.00000000000E+000  0.00000000000E+000  0.99999000000E+000  0.99999997474E-005  0.00000000000E+000  0.10000000000E+001  0.00000000000E+000  0.85141868894E+001  0.98991256682E+003  0.10022849464E-002
                    0.37500000000E-001  0.00000000000E+000 -0.10000000000E+003                   2  0.80611585509E+006  0.47357207156E+002  0.00000000000E+000  0.10000000000E+001  0.00000000000E+000  0.00000000000E+000  0.99999000000E+000  0.99999997474E-005  0.00000000000E+000  0.10000000000E+001  0.00000000000E+000  0.87161686580E+001  0.98956222549E+003  0.10022477138E-002
                    0.37500000000E-001  0.00000000000E+000 -0.10200000000E+003                   1  0.96578252144E+006  0.17699019348E+002  0.00000000000E+000  0.10000000000E+001  0.00000000000E+000  0.00000000000E+000  0.99999000000E+000  0.99999997474E-005  0.00000000000E+000  0.10000000000E+001  0.00000000000E+000  0.11556532890E+002  0.99916441998E+003  0.30109585324E+000
                    0.37500000000E-001  0.00000000000E+000 -0.10500000000E+003                   1  0.97820542960E+006  0.17760610174E+002  0.00000000000E+000  0.10000000000E+001  0.00000000000E+000  0.00000000000E+000  0.99999000000E+000  0.99999997474E-005  0.00000000000E+000  0.10000000000E+001  0.00000000000E+000  0.11702789022E+002  0.99915886815E+003  0.30104475330E+000
                    0.37500000000E-001  0.00000000000E+000 -0.11100000000E+003                   1  0.10029004420E+007  0.17884492700E+002  0.00000000000E+000  0.10000000000E+001  0.00000000000E+000  0.00000000000E+000  0.99999000000E+000  0.99999997474E-005  0.00000000000E+000  0.10000000000E+001  0.00000000000E+000  0.11993281127E+002  0.99914742882E+003  0.30094212730E+000
                    0.37500000000E-001  0.00000000000E+000 -0.12300000000E+003                   1  0.10519100028E+007  0.18132376396E+002  0.00000000000E+000  0.10000000000E+001  0.00000000000E+000  0.00000000000E+000  0.99999000000E+000  0.99999997474E-005  0.00000000000E+000  0.10000000000E+001  0.00000000000E+000  0.12568967942E+002  0.99912379985E+003  0.30073584192E+000
                    0.37500000000E-001  0.00000000000E+000 -0.14700000000E+003                   1  0.11723574151E+007  0.18628733029E+002  0.00000000000E+000  0.10000000000E+001  0.00000000000E+000  0.00000000000E+000  0.99999000000E+000  0.99999997474E-005  0.00000000000E+000  0.10000000000E+001  0.00000000000E+000  0.13985106001E+002  0.99908444575E+003  0.30039090500E+000
                    0.37500000000E-001  0.00000000000E+000 -0.19500000000E+003                   3  0.17239717463E+007  0.19625000000E+002  0.00000000000E+000  0.10000000000E+001  0.00000000000E+000  0.00000000000E+000  0.99999000000E+000  0.99999997474E-005  0.00000000000E+000  0.10000000000E+001  0.00000000000E+000  0.20499272520E+002  0.99913720004E+003  0.30063500999E+000
                    0.37500000000E-001  0.00000000000E+000 -0.50000000000E-005                   5  0.10132500000E+006  0.15000000000E+002  0.10000000000E+001  0.00000000000E+000  0.52499771120E-002  0.99475002289E+000  0.00000000000E+000  0.00000000000E+000  0.10000000000E+001  0.00000000000E+000  0.00000000000E+000  0.12208885817E+001  0.99921336741E+003  0.99000001000E+000
                    0.37500000000E-001  0.00000000000E+000 -0.25000000000E+000                   4  0.10133230497E+006  0.15011270895E+002  0.89206033142E+000  0.10793966858E+000  0.10544399045E-001  0.98945560095E+000  0.99998398543E+000  0.16014568033E-004  0.98015277394E+000  0.43963739581E-006 -0.17542942944E+006  0.12170405163E+001  0.99921169682E+003  0.30000002294E+000
                    0.37500000000E-001  0.00000000000E+000 -0.75000000000E+000                   4  0.10133508968E+006  0.15034128001E+002  0.89610576570E+000  0.10389423430E+000  0.10559743737E-001  0.98944025626E+000  0.99998398539E+000  0.16014612035E-004  0.99026464437E+000  0.51857921857E-007 -0.19005707765E+006  0.12169662044E+001  0.99920829853E+003  0.30000004008E+000
                    0.79290000000E-001  0.00000000000E+000 -0.25000000000E+000                   1  0.10133021879E+006  0.15011268631E+002  0.89664082803E+000  0.10335917197E+000  0.10544615972E-001  0.98945538403E+000  0.99998398577E+000  0.16014232732E-004  0.99160221783E+000  0.33283525029E-007 -0.19214353333E+006  0.12170153111E+001  0.99921169619E+003  0.30000001670E+000
                    0.79290000000E-001  0.00000000000E+000 -0.75000000000E+000                   1  0.10133490342E+006  0.15033887243E+002  0.89606761888E+000  0.10393238112E+000  0.10559598462E-001  0.98944040154E+000  0.99998398541E+000  0.16014586351E-004  0.99016928416E+000  0.53397000637E-007 -0.18990976528E+006  0.12169650906E+001  0.99920833428E+003  0.30000004283E+000
                    0.79290000000E-001  0.00000000000E+000 -0.15000000000E+001                   1  0.10135815386E+006  0.16406110474E+002  0.89515090749E+000  0.10484909251E+000  0.11534128931E-001  0.98846587107E+000  0.99998400688E+000  0.15993115616E-004  0.98787771278E+000  0.10012919132E-006 -0.18642597872E+006  0.12107664826E+001  0.99899259454E+003  0.30000008567E+000
                    0.79290000000E-001  0.00000000000E+000 -0.27500000000E+001                   1  0.10137567691E+006  0.16872923816E+002  0.89401428963E+000  0.10598571037E+000  0.11882206738E-001  0.98811779326E+000  0.99998401309E+000  0.15986905533E-004  0.98503655867E+000  0.18834956566E-006 -0.18225177710E+006  0.12087739379E+001  0.99891406117E+003  0.30000015343E+000
                    0.79290000000E-001  0.00000000000E+000 -0.47500000000E+001                   1  0.10140205507E+006  0.17363232177E+002  0.89251768430E+000  0.10748231570E+000  0.12256803841E-001  0.98774319616E+000  0.99998401859E+000  0.15981408602E-004  0.98129583942E+000  0.36794149806E-006 -0.17698781707E+006  0.12067764176E+001  0.99882882139E+003  0.30000022087E+000
                    0.79290000000E-001  0.00000000000E+000 -0.85000000000E+001                   1  0.10144926702E+006  0.17899615527E+002  0.88952286163E+000  0.11047713837E+000  0.12676209296E-001  0.98732379070E+000  0.99998402196E+000  0.15978038119E-004  0.97381161716E+000  0.10104458965E-005 -0.16718282236E+006  0.12048099483E+001  0.99873238437E+003  0.30000037811E+000
                    0.79290000000E-001  0.00000000000E+000 -0.13500000000E+002                   1  0.10151159359E+006  0.18480643273E+002  0.88199109406E+000  0.11800890594E+000  0.13143305098E-001  0.98685669490E+000  0.99998402419E+000  0.15975813343E-004  0.95500029344E+000  0.51353476687E-005 -0.14614391009E+006  0.12028111730E+001  0.99862420820E+003  0.30000056591E+000
                    0.79290000000E-001  0.00000000000E+000 -0.18500000000E+002                   1  0.10157486271E+006  0.19097713852E+002  0.86026828326E+000  0.13973171674E+000  0.13656327492E-001  0.98634367251E+000  0.99998402745E+000  0.15972545769E-004  0.90090962750E+000  0.55288482672E-004 -0.10485648973E+006  0.12006501482E+001  0.99850514649E+003  0.30000075659E+000
                    0.79290000000E-001  0.00000000000E+000 -0.23500000000E+002                   1  0.10164057878E+006  0.19773877189E+002  0.80519970241E+000  0.19480029759E+000  0.14239192145E-001  0.98576080786E+000  0.99998403214E+000  0.15967855284E-004  0.76613011336E+000  0.75719340231E-003 -0.56710272284E+005  0.11982349665E+001  0.99836981872E+003  0.30000095465E+000
                    0.79290000000E-001  0.00000000000E+000 -0.28500000000E+002                   1  0.10176917452E+006  0.20570722270E+002  0.41921185152E+000  0.58078814848E+000  0.14946582424E-001  0.98505341758E+000  0.99998403018E+000  0.15969816006E-004  0.10170782661E+000  0.10901389169E+000 -0.79106563506E+004  0.11959892207E+001  0.99820394079E+003  0.30000134126E+000
                    0.79290000000E-001  0.00000000000E+000 -0.33500000000E+002                   1  0.14476830883E+006  0.21070709192E+002  0.88569297964E-001  0.91143070204E+000  0.10808837472E-001  0.98919116253E+000  0.99997713050E+000  0.22869495932E-004  0.00000000000E+000  0.63044672138E+000 -0.18252229183E+004  0.17026523479E+001  0.99811581404E+003  0.30013036073E+000
                    0.79290000000E-001  0.00000000000E+000 -0.38500000000E+002                   1  0.19353192243E+006  0.21591278903E+002  0.75106381656E-001  0.92489361834E+000  0.83353459545E-002  0.99166465405E+000  0.99996930512E+000  0.30694883401E-004  0.00000000000E+000  0.67144236615E+000 -0.16266251146E+004  0.22755392434E+001  0.99802298277E+003  0.30027674309E+000
                    0.79290000000E-001  0.00000000000E+000 -0.42250000000E+002                   1  0.23000293983E+006  0.22098336813E+002  0.59204921560E-001  0.94079507844E+000  0.72295451895E-002  0.99277045481E+000  0.99996345572E+000  0.36544279493E-004  0.00000000000E+000  0.72383515261E+000 -0.13839496191E+004  0.27015200755E+001  0.99792478100E+003  0.30038626241E+000
                    0.79290000000E-001  0.00000000000E+000 -0.44250000000E+002                   1  0.24944992819E+006  0.22585104167E+002  0.49766518761E-001  0.95023348124E+000  0.68649225757E-002  0.99313507742E+000  0.99996034262E+000  0.39657375795E-004  0.00000000000E+000  0.75733772194E+000 -0.12333853806E+004  0.29257578742E+001  0.99782093428E+003  0.30044468802E+000
                    0.79290000000E-001  0.00000000000E+000 -0.45500000000E+002                   1  0.26164046838E+006  0.23063904479E+002  0.44773964002E-001  0.95522603600E+000  0.67374214189E-002  0.99326257858E+000  0.99995839606E+000  0.41603939436E-004  0.00000000000E+000  0.77590692572E+000 -0.11509425638E+004  0.30640148849E+001  0.99771326714E+003  0.30048133177E+000
                    0.79290000000E-001  0.00000000000E+000 -0.46500000000E+002                   1  0.27142879162E+006  0.23540343695E+002  0.41983497073E-001  0.95801650293E+000  0.66839620516E-002  0.99331603795E+000  0.99995683590E+000  0.43164100468E-004  0.00000000000E+000  0.78656983617E+000 -0.11038156327E+004  0.31736426298E+001  0.99760275307E+003  0.30051072727E+000
                    0.79290000000E-001  0.00000000000E+000 -0.47500000000E+002                   1  0.28124297043E+006  0.24016968257E+002  0.40073376466E-001  0.95992662353E+000  0.66383657618E-002  0.99336163424E+000  0.99995527193E+000  0.44728074612E-004  0.00000000000E+000  0.79399438959E+000 -0.10710633922E+004  0.32832105146E+001  0.99748991295E+003  0.30054022791E+000
                    0.79290000000E-001  0.00000000000E+000 -0.48500000000E+002                   1  0.29110348761E+006  0.24493605373E+002  0.38446635755E-001  0.96155336424E+000  0.65994156749E-002  0.99340058433E+000  0.99995370085E+000  0.46299151822E-004  0.00000000000E+000  0.80040185753E+000 -0.10428248686E+004  0.33929602178E+001  0.99737482050E+003  0.30056987386E+000
                    0.79290000000E-001  0.00000000000E+000 -0.49500000000E+002                   1  0.30173926259E+006  0.24970261940E+002  0.36741931845E-001  0.96325806816E+000  0.65506481972E-002  0.99344935180E+000  0.99995200551E+000  0.47994491194E-004  0.00000000000E+000  0.80720325563E+000 -0.10128651145E+004  0.35114067974E+001  0.99725782346E+003  0.30060182841E+000
                    0.79290000000E-001  0.00000000000E+000 -0.50500000000E+002                   1  0.32925655820E+006  0.25447566432E+002  0.30951757029E-001  0.96904824297E+000  0.61749217936E-002  0.99382507821E+000  0.99994759702E+000  0.52402982676E-004  0.00000000000E+000  0.83102338633E+000 -0.90786255419E+003  0.38263746746E+001  0.99714599026E+003  0.30068455548E+000
                    0.79290000000E-001  0.00000000000E+000 -0.51500000000E+002                   1  0.57473379763E+006  0.25900111309E+002  0.00000000000E+000  0.10000000000E+001  0.00000000000E+000  0.00000000000E+000  0.99997443349E+000  0.25566511469E-004  0.00000000000E+000  0.10000000000E+001  0.00000000000E+000  0.66792782480E+001  0.99713601156E+003  0.30140851940E+000
                    0.79290000000E-001  0.00000000000E+000 -0.52500000000E+002                   1  0.69325014305E+006  0.26375754590E+002  0.00000000000E+000  0.10000000000E+001  0.00000000000E+000  0.00000000000E+000  0.99998538368E+000  0.14616323878E-004  0.00000000000E+000  0.10000000000E+001  0.00000000000E+000  0.80464268335E+001  0.99706084051E+003  0.30173606910E+000
                    0.79290000000E-001  0.00000000000E+000 -0.53500000000E+002                   1  0.73977974540E+006  0.26852294410E+002  0.00000000000E+000  0.10000000000E+001  0.00000000000E+000  0.00000000000E+000  0.99998900419E+000  0.10995812018E-004  0.00000000000E+000  0.10000000000E+001  0.00000000000E+000  0.85734302013E+001  0.99695105741E+003  0.30184677086E+000
                    0.79290000000E-001  0.00000000000E+000 -0.54500000000E+002                   1  0.75786476287E+006  0.27328765600E+002  0.00000000000E+000  0.10000000000E+001  0.00000000000E+000  0.00000000000E+000  0.99998983623E+000  0.10163769083E-004  0.00000000000E+000  0.10000000000E+001  0.00000000000E+000  0.87690337764E+001  0.99682645183E+003  0.30187173958E+000
                    0.79290000000E-001  0.00000000000E+000 -0.55500000000E+002                   1  0.76639368926E+006  0.27805143647E+002  0.00000000000E+000  0.10000000000E+001  0.00000000000E+000  0.00000000000E+000  0.99998997852E+000  0.10021483784E-004  0.00000000000E+000  0.10000000000E+001  0.00000000000E+000  0.88534145810E+001  0.99669549873E+003  0.30186790279E+000
                    0.79290000000E-001  0.00000000000E+000 -0.56500000000E+002                   1  0.77199272419E+006  0.28281491389E+002  0.00000000000E+000  0.10000000000E+001  0.00000000000E+000  0.00000000000E+000  0.99998999764E+000  0.10002361045E-004  0.00000000000E+000  0.10000000000E+001  0.00000000000E+000  0.89036637684E+001  0.99656115982E+003  0.30185523503E+000
                    0.79290000000E-001  0.00000000000E+000 -0.57750000000E+002                   1  0.77790172856E+006  0.28759562711E+002  0.00000000000E+000  0.10000000000E+001  0.00000000000E+000  0.00000000000E+000  0.99998999987E+000  0.10000129911E-004  0.00000000000E+000  0.10000000000E+001  0.00000000000E+000  0.89572665071E+001  0.99642438239E+003  0.30183612363E+000
                    0.79290000000E-001  0.00000000000E+000 -0.59750000000E+002                   1  0.78681796725E+006  0.29248795307E+002  0.00000000000E+000  0.10000000000E+001  0.00000000000E+000  0.00000000000E+000  0.99999000000E+000  0.10000002480E-004  0.00000000000E+000  0.10000000000E+001  0.00000000000E+000  0.90449819664E+001  0.99628354626E+003  0.30180391322E+000
                    0.79290000000E-001  0.00000000000E+000 -0.63500000000E+002                   1  0.80335309487E+006  0.29755141535E+002  0.00000000000E+000  0.10000000000E+001  0.00000000000E+000  0.00000000000E+000  0.99999000000E+000  0.99999997474E-005  0.00000000000E+000  0.10000000000E+001  0.00000000000E+000  0.92194762755E+001  0.99613876414E+003  0.30174299623E+000
                    0.79290000000E-001  0.00000000000E+000 -0.68500000000E+002                   1  0.82519384548E+006  0.30276283616E+002  0.00000000000E+000  0.10000000000E+001  0.00000000000E+000  0.00000000000E+000  0.99999000000E+000  0.99999997474E-005  0.00000000000E+000  0.10000000000E+001  0.00000000000E+000  0.94538046487E+001  0.99598950393E+003  0.30166113480E+000
                    0.79290000000E-001  0.00000000000E+000 -0.76000000000E+002                   1  0.85761645888E+006  0.30828486528E+002  0.00000000000E+000  0.10000000000E+001  0.00000000000E+000  0.00000000000E+000  0.99999000000E+000  0.99999997474E-005  0.00000000000E+000  0.10000000000E+001  0.00000000000E+000  0.98075404798E+001  0.99583283812E+003  0.30153736486E+000
                    0.79290000000E-001  0.00000000000E+000 -0.86000000000E+002                   1  0.90028669101E+006  0.31406712394E+002  0.00000000000E+000  0.10000000000E+001  0.00000000000E+000  0.00000000000E+000  0.99999000000E+000  0.99999997474E-005  0.00000000000E+000  0.10000000000E+001  0.00000000000E+000  0.10276276073E+002  0.99566978003E+003  0.30137071387E+000
                    0.79290000000E-001  0.00000000000E+000 -0.93500000000E+002                   1  0.93186713283E+006  0.31955584466E+002  0.00000000000E+000  0.10000000000E+001  0.00000000000E+000  0.00000000000E+000  0.99999000000E+000  0.99999997474E-005  0.00000000000E+000  0.10000000000E+001  0.00000000000E+000  0.10617684534E+002  0.99550836589E+003  0.30124448694E+000
                    0.79290000000E-001  0.00000000000E+000 -0.97500000000E+002                   1  0.94853498984E+006  0.32468270348E+002  0.00000000000E+000  0.10000000000E+001  0.00000000000E+000  0.00000000000E+000  0.99999000000E+000  0.99999997474E-005  0.00000000000E+000  0.10000000000E+001  0.00000000000E+000  0.10789235439E+002  0.99534959110E+003  0.30117667518E+000
                    0.79290000000E-001  0.00000000000E+000 -0.10000000000E+003                   1  0.95885633285E+006  0.32960816364E+002  0.00000000000E+000  0.10000000000E+001  0.00000000000E+000  0.00000000000E+000  0.99999000000E+000  0.99999997474E-005  0.00000000000E+000  0.10000000000E+001  0.00000000000E+000  0.10888728987E+002  0.99519244311E+003  0.30113400522E+000
                    0.79290000000E-001  0.00000000000E+000 -0.10200000000E+003                   1  0.96591893659E+006  0.17699021970E+002  0.00000000000E+000  0.10000000000E+001  0.00000000000E+000  0.00000000000E+000  0.99999000000E+000  0.99999997474E-005  0.00000000000E+000  0.10000000000E+001  0.00000000000E+000  0.11558166417E+002  0.99916448188E+003  0.30109626397E+000