 VARIABLES       =                 X                 Y                 Z              ROCK              PRES              TEMP             SAT_G             SAT_L         X_WATER_G           X_AIR_G         X_WATER_L           X_AIR_L             REL_G             REL_L           PCAP_GL             DEN_G             DEN_L               POR
 ZONE T=" 0.3153570E+08 SEC"  I =        9 J =        0 K =       30
                    0.37500000000E-001  0.00000000000E+000 -0.15000000000E+001                   2  0.10103621923E+006  0.56046384864E+001  0.50013409243E+000  0.49986590757E+000  0.56207544106E-002  0.99437924559E+000  0.99998390509E+000  0.16094906855E-004  0.18766765768E+000  0.61051155567E-001  0.00000000000E+000  0.12581605298E+001  0.10000122391E+004  0.99998295331E-003
                    0.37500000000E-001  0.00000000000E+000 -0.27500000000E+001                   2  0.10106331771E+006  0.69390349416E+001  0.50010863366E+000  0.49989136634E+000  0.61635903550E-002  0.99383640964E+000  0.99998391484E+000  0.16085162734E-004  0.18763581974E+000  0.61063296251E-001  0.00000000000E+000  0.12520918538E+001  0.99997731196E+003  0.99998470403E-003
                    0.37500000000E-001  0.00000000000E+000 -0.47500000000E+001                   2  0.10109740729E+006  0.80037994467E+001  0.50008042242E+000  0.49991957758E+000  0.66287468076E-002  0.99337125319E+000  0.99998392146E+000  0.16078543656E-004  0.18760054319E+000  0.61076751502E-001  0.00000000000E+000  0.12474205798E+001  0.99992945519E+003  0.99998505560E-003
                    0.37500000000E-001  0.00000000000E+000 -0.85000000000E+001                   2  0.10114033512E+006  0.79467574041E+001  0.50008314224E+000  0.49991685776E+000  0.66001271583E-002  0.99339987284E+000  0.99998391389E+000  0.16086112071E-004  0.18760394400E+000  0.61075454205E-001  0.00000000000E+000  0.12482250552E+001  0.99993247922E+003  0.99998726678E-003
                    0.37500000000E-001  0.00000000000E+000 -0.13500000000E+002                   2  0.10114448964E+006  0.76083292834E+001  0.50009417448E+000  0.49990582552E+000  0.64486453263E-002  0.99355135467E+000  0.99998390930E+000  0.16090696457E-004  0.18761773889E+000  0.61070192245E-001  0.00000000000E+000  0.12498952434E+001  0.99994928639E+003  0.99993825407E-003
                    0.37500000000E-001  0.00000000000E+000 -0.18500000000E+002                   2  0.10123463180E+006  0.76912025232E+001  0.50009408744E+000  0.49990591256E+000  0.64795885976E-002  0.99352041140E+000  0.99998389577E+000  0.16104234557E-004  0.18761763005E+000  0.61070233759E-001  0.00000000000E+000  0.12506166723E+001  0.99994537541E+003  0.10000075434E-002
                    0.37500000000E-001  0.00000000000E+000 -0.23500000000E+002                   2  0.10128385978E+006  0.77094522208E+001  0.50008662653E+000  0.49991337347E+000  0.64845312986E-002  0.99351546870E+000  0.99998388806E+000  0.16111937442E-004  0.18760830075E+000  0.61073792298E-001  0.00000000000E+000  0.12511397866E+001  0.99994451415E+003  0.10000075376E-002
                    0.37500000000E-001  0.00000000000E+000 -0.28500000000E+002                   2  0.10135422276E+006  0.77150457130E+001  0.50008511229E+000  0.49991488771E+000  0.64824959050E-002  0.99351750409E+000  0.99998387682E+000  0.16123183396E-004  0.18760640734E+000  0.61074514544E-001  0.00000000000E+000  0.12519855746E+001  0.99994427561E+003  0.99987141432E-003
                    0.37500000000E-001  0.00000000000E+000 -0.33500000000E+002                   2  0.10134954102E+006  0.72441011967E+001  0.50010500667E+000  0.49989499333E+000  0.62765764232E-002  0.99372342358E+000  0.99998387222E+000  0.16127784111E-004  0.18763128418E+000  0.61065026018E-001  0.00000000000E+000  0.12541862925E+001  0.99996551551E+003  0.10001004412E-002
                    0.37500000000E-001  0.00000000000E+000 -0.38500000000E+002                   2  0.12283184378E+006  0.86087200502E+001  0.50031012477E+000  0.49968987523E+000  0.56814299864E-002  0.99431857001E+000  0.99998043501E+000  0.19564993797E-004  0.18788788138E+000  0.60967256232E-001  0.00000000000E+000  0.15132096804E+001  0.99990495168E+003  0.10005244562E-002
                    0.37500000000E-001  0.00000000000E+000 -0.42250000000E+002                   2  0.19525712550E+006  0.80892770341E+001  0.50115850403E+000  0.49884149597E+000  0.34455265176E-002  0.99655447348E+000  0.99996878693E+000  0.31213066237E-004  0.18895127565E+000  0.60564041302E-001  0.00000000000E+000  0.24131462446E+001  0.99996983134E+003  0.10009481615E-002
                    0.37500000000E-001  0.00000000000E+000 -0.44250000000E+002                   2  0.20537943145E+006  0.80870259742E+001  0.50127427115E+000  0.49872572885E+000  0.32748707129E-002  0.99672512929E+000  0.99996715983E+000  0.32840173621E-004  0.18909664463E+000  0.60509165312E-001  0.00000000000E+000  0.25385284283E+001  0.99997478807E+003  0.10010325718E-002
                    0.37500000000E-001  0.00000000000E+000 -0.45500000000E+002                   2  0.21209692686E+006  0.80919411339E+001  0.50135490818E+000  0.49864509182E+000  0.31720129056E-002  0.99682798709E+000  0.99996608010E+000  0.33919898963E-004  0.18919793782E+000  0.60470962313E-001  0.00000000000E+000  0.26216753391E+001  0.99997772727E+003  0.10011332792E-002
                    0.37500000000E-001  0.00000000000E+000 -0.46500000000E+002                   2  0.21805577450E+006  0.80939682616E+001  0.50142079442E+000  0.49857920558E+000  0.30855949531E-002  0.99691440505E+000  0.99996512229E+000  0.34877711096E-004  0.18928072424E+000  0.60439760283E-001  0.00000000000E+000  0.26954526873E+001  0.99998046179E+003  0.10011404866E-002
                    0.37500000000E-001  0.00000000000E+000 -0.47500000000E+002                   2  0.22433035424E+006  0.80977731004E+001  0.50149242823E+000  0.49850757177E+000  0.29999110268E-002  0.99700008897E+000  0.99996411375E+000  0.35886252860E-004  0.18937075561E+000  0.60405849163E-001  0.00000000000E+000  0.27731209682E+001  0.99998324951E+003  0.10012302925E-002
                    0.37500000000E-001  0.00000000000E+000 -0.48500000000E+002                   2  0.23068488807E+006  0.81016983743E+001  0.50156558884E+000  0.49843441116E+000  0.29179087230E-002  0.99708209128E+000  0.99996309236E+000  0.36907644366E-004  0.18946273073E+000  0.60371229037E-001  0.00000000000E+000  0.28517760441E+001  0.99998606843E+003  0.10012797994E-002
                    0.37500000000E-001  0.00000000000E+000 -0.49500000000E+002                   2  0.23695841841E+006  0.81076789894E+001  0.50163788713E+000  0.49836211287E+000  0.28416813788E-002  0.99715831862E+000  0.99996208401E+000  0.37915990197E-004  0.18955364642E+000  0.60337030642E-001  0.00000000000E+000  0.29294036712E+001  0.99998873529E+003  0.10013539067E-002
                    0.37500000000E-001  0.00000000000E+000 -0.50500000000E+002                   2  0.24251808611E+006  0.81317670241E+001  0.50170306550E+000  0.49829693450E+000  0.27809879967E-002  0.99721901200E+000  0.99996119063E+000  0.38809374102E-004  0.18963562974E+000  0.60306211745E-001  0.00000000000E+000  0.29979886083E+001  0.99999006046E+003  0.10014032142E-002
                    0.37500000000E-001  0.00000000000E+000 -0.51500000000E+002                   2  0.16652823948E+006  0.81307985737E+001  0.79306442220E-003  0.99920693558E+000  0.40528548087E-002  0.99594714519E+000  0.99997340538E+000  0.26594623302E-004  0.00000000000E+000  0.99098012396E+000  0.00000000000E+000  0.20570314513E+001  0.99995383433E+003  0.10005011422E-002
                    0.37500000000E-001  0.00000000000E+000 -0.52500000000E+002                   2  0.13648699639E+006  0.81323573706E+001  0.34750462810E-003  0.99965249537E+000  0.49481045245E-002  0.99505189548E+000  0.99997823432E+000  0.21765683358E-004  0.00000000000E+000  0.99536727138E+000  0.00000000000E+000  0.16850265808E+001  0.99993940456E+003  0.10000155116E-002
                    0.37500000000E-001  0.00000000000E+000 -0.53500000000E+002                   2  0.13002037829E+006  0.81328256195E+001  0.17111077067E-003  0.99982888923E+000  0.51951419227E-002  0.99480485808E+000  0.99997927379E+000  0.20726211497E-004  0.00000000000E+000  0.99738457497E+000  0.00000000000E+000  0.16049492904E+001  0.99993629105E+003  0.99999606903E-003
                    0.37500000000E-001  0.00000000000E+000 -0.54500000000E+002                   2  0.12791568365E+006  0.81333975795E+001  0.56058733035E-004  0.99994394127E+000  0.52811014562E-002  0.99471889854E+000  0.99997961211E+000  0.20387888739E-004  0.00000000000E+000  0.99893621273E+000  0.00000000000E+000  0.15788840379E+001  0.99993525457E+003  0.99989024527E-003
                    0.37500000000E-001  0.00000000000E+000 -0.55500000000E+002                   2  0.13375134825E+006  0.81343501192E+001  0.00000000000E+000  0.10000000000E+001  0.00000000000E+000  0.00000000000E+000  0.99998011804E+000  0.19881958397E-004  0.00000000000E+000  0.10000000000E+001  0.00000000000E+000  0.16511393759E+001  0.99993798849E+003  0.99984428444E-003
                    0.37500000000E-001  0.00000000000E+000 -0.56500000000E+002                   2  0.14249370991E+006  0.81347976197E+001  0.00000000000E+000  0.10000000000E+001  0.00000000000E+000  0.00000000000E+000  0.99998100490E+000  0.18995100851E-004  0.00000000000E+000  0.10000000000E+001  0.00000000000E+000  0.17593900572E+001  0.99994213807E+003  0.99984581857E-003
                    0.37500000000E-001  0.00000000000E+000 -0.57750000000E+002                   2  0.15526459929E+006  0.81363470735E+001  0.00000000000E+000  0.10000000000E+001  0.00000000000E+000  0.00000000000E+000  0.99998282683E+000  0.17173173480E-004  0.00000000000E+000  0.10000000000E+001  0.00000000000E+000  0.19175162072E+001  0.99994815019E+003  0.99983671690E-003
                    0.37500000000E-001  0.00000000000E+000 -0.59750000000E+002                   2  0.17445244892E+006  0.81387892049E+001  0.00000000000E+000  0.10000000000E+001  0.00000000000E+000  0.00000000000E+000  0.99998581626E+000  0.14183742727E-004  0.00000000000E+000  0.10000000000E+001  0.00000000000E+000  0.21550914617E+001  0.99995717638E+003  0.99985036264E-003
                    0.37500000000E-001  0.00000000000E+000 -0.63500000000E+002                   2  0.21021430945E+006  0.81527790547E+001  0.00000000000E+000  0.10000000000E+001  0.00000000000E+000  0.00000000000E+000  0.99998868682E+000  0.11313180710E-004  0.00000000000E+000  0.10000000000E+001  0.00000000000E+000  0.25977771865E+001  0.99997347339E+003  0.99983500178E-003
                    0.37500000000E-001  0.00000000000E+000 -0.68500000000E+002                   2  0.25965883219E+006  0.81624781133E+001  0.00000000000E+000  0.10000000000E+001  0.00000000000E+000  0.00000000000E+000  0.99998966665E+000  0.10333348408E-004  0.00000000000E+000  0.10000000000E+001  0.00000000000E+000  0.32098774521E+001  0.99999653445E+003  0.99983034458E-003
                    0.37500000000E-001  0.00000000000E+000 -0.76000000000E+002                   2  0.33179276054E+006  0.81765424955E+001  0.00000000000E+000  0.10000000000E+001  0.00000000000E+000  0.00000000000E+000  0.99998996017E+000  0.10039826442E-004  0.00000000000E+000  0.10000000000E+001  0.00000000000E+000  0.41027876096E+001  0.10000301722E+004  0.99983280045E-003
                    0.37500000000E-001  0.00000000000E+000 -0.86000000000E+002                   2  0.42921869789E+006  0.81906323041E+001  0.00000000000E+000  0.10000000000E+001  0.00000000000E+000  0.00000000000E+000  0.99998999595E+000  0.10004046386E-004  0.00000000000E+000  0.10000000000E+001  0.00000000000E+000  0.53087275572E+001  0.10000758630E+004  0.99983991972E-003
                    0.37500000000E-001  0.00000000000E+000 -0.93500000000E+002                   2  0.50251501070E+006  0.81718674708E+001  0.00000000000E+000  0.10000000000E+001  0.00000000000E+000  0.00000000000E+000  0.99998999934E+000  0.10000664544E-004  0.00000000000E+000  0.10000000000E+001  0.00000000000E+000  0.62165699227E+001  0.10001118949E+004  0.99982758915E-003
                    0.37500000000E-001  0.00000000000E+000 -0.97500000000E+002                   2  0.54082481971E+006  0.81770440833E+001  0.00000000000E+000  0.10000000000E+001  0.00000000000E+000  0.00000000000E+000  0.99998999985E+000  0.10000150579E-004  0.00000000000E+000  0.10000000000E+001  0.00000000000E+000  0.66907588457E+001  0.10001298772E+004  0.99984204431E-003
                    0.37500000000E-001  0.00000000000E+000 -0.10000000000E+003                   2  0.56613981159E+006  0.83491103361E+001  0.00000000000E+000  0.10000000000E+001  0.00000000000E+000  0.00000000000E+000  0.99998999996E+000  0.10000042777E-004  0.00000000000E+000  0.10000000000E+001  0.00000000000E+000  0.69998372124E+001  0.10001319486E+004  0.99984807354E-003
                    0.37500000000E-001  0.00000000000E+000 -0.50000000000E-005                   5  0.10132500000E+006  0.50100000000E+001  0.10000000000E+001  0.00000000000E+000  0.37865000000E-002  0.99621350000E+000  0.00000000000E+000  0.00000000000E+000  0.10000000000E+001  0.00000000000E+000  0.00000000000E+000  0.12658562711E+001  0.10000186787E+004  0.99000001000E+000
                    0.38420000000E+000  0.00000000000E+000 -0.25000000000E+000                   1  0.10132813945E+006  0.55053036334E+001  0.91880482341E+000  0.81195176588E-001  0.55658480855E-002  0.99443415191E+000  0.99998385716E+000  0.16142835674E-004  0.10000000000E+001  0.00000000000E+000 -0.32976701745E+005  0.12622873575E+001  0.10000138367E+004  0.30000001000E+000
                    0.28110000000E+001  0.00000000000E+000 -0.25000000000E+000                   1  0.10132814344E+006  0.56134204770E+001  0.91879262850E+000  0.81207371499E-001  0.56079352202E-002  0.99439206478E+000  0.99998385826E+000  0.16141742844E-004  0.10000000000E+001  0.00000000000E+000 -0.32964914920E+005  0.12617657665E+001  0.10000122439E+004  0.30000001000E+000
                    0.38420000000E+000  0.00000000000E+000 -0.15000000000E+001                   1  0.10134368910E+006  0.70284999880E+001  0.89957326642E+000  0.10042673358E+000  0.61844840825E-002  0.99381551592E+000  0.99998387076E+000  0.16129243860E-004  0.99893316636E+000  0.68222711146E-010 -0.20428707210E+005  0.12551486927E+001  0.99997409676E+003  0.30000004000E+000
                    0.28110000000E+001  0.00000000000E+000 -0.15000000000E+001                   1  0.10134370118E+006  0.81515334038E+001  0.89963173369E+000  0.10036826631E+000  0.66796591302E-002  0.99332034087E+000  0.99998388361E+000  0.16116393144E-004  0.99907933441E+000  0.43847363576E-010 -0.20454209273E+005  0.12497644624E+001  0.99992156589E+003  0.30000004000E+000
                    0.38420000000E+000  0.00000000000E+000 -0.23500000000E+002                   1  0.10161417929E+006  0.93237576653E+001  0.87410952603E+000  0.12589047397E+000  0.72143972760E-002  0.99278560272E+000  0.99998385450E+000  0.16145499403E-004  0.93534051034E+000  0.15272347305E-004 -0.12845544211E+005  0.12474974212E+001  0.99984666151E+003  0.30000088003E+000
                    0.28110000000E+001  0.00000000000E+000 -0.23500000000E+002                   1  0.10161418473E+006  0.10901332730E+002  0.87423631510E+000  0.12576368490E+000  0.80220916574E-002  0.99197790834E+000  0.99998387549E+000  0.16124513047E-004  0.93565651325E+000  0.15048852221E-004 -0.12871142093E+005  0.12399652786E+001  0.99971436980E+003  0.30000088003E+000
                    0.38420000000E+000  0.00000000000E+000 -0.50500000000E+002                   1  0.26539076503E+006  0.94712193544E+001  0.15056664099E-001  0.98494333590E+000  0.27823866132E-002  0.99721761339E+000  0.99995753053E+000  0.42469467965E-004  0.00000000000E+000  0.90389678171E+000 -0.57882329563E+002  0.32651879543E+001  0.99991345705E+003  0.30036733231E+000
                    0.28110000000E+001  0.00000000000E+000 -0.50500000000E+002                   1  0.26538784676E+006  0.10789053548E+002  0.13832792419E-001  0.98616720758E+000  0.30395349864E-002  0.99696046501E+000  0.99995754855E+000  0.42451450896E-004  0.00000000000E+000  0.91014111900E+000 -0.54937439577E+002  0.32494925075E+001  0.99980210361E+003  0.30036730231E+000
                    0.38420000000E+000  0.00000000000E+000 -0.10000000000E+003                   1  0.75091495818E+006  0.96980918458E+001  0.00000000000E+000  0.10000000000E+001  0.00000000000E+000  0.00000000000E+000  0.99998999983E+000  0.10000174696E-004  0.00000000000E+000  0.10000000000E+001  0.00000000000E+000  0.92413241179E+001  0.10001258748E+004  0.30038261265E+000
                    0.28110000000E+001  0.00000000000E+000 -0.10000000000E+003                   1  0.75091478625E+006  0.10885259893E+002  0.00000000000E+000  0.10000000000E+001  0.00000000000E+000  0.00000000000E+000  0.99998999983E+000  0.10000172284E-004  0.00000000000E+000  0.10000000000E+001  0.00000000000E+000  0.92022373453E+001  0.10000215358E+004  0.30038261265E+000
                    0.37500000000E-001  0.00000000000E+000 -0.10200000000E+003                   1  0.77053625926E+006  0.10855116737E+002  0.00000000000E+000  0.10000000000E+001  0.00000000000E+000  0.00000000000E+000  0.99998999999E+000  0.10000012324E-004  0.00000000000E+000  0.10000000000E+001  0.00000000000E+000  0.94438643812E+001  0.10000336601E+004  0.30038002266E+000
                    0.37500000000E-001  0.00000000000E+000 -0.10500000000E+003                   1  0.79996797224E+006  0.10971113222E+002  0.00000000000E+000  0.10000000000E+001  0.00000000000E+000  0.00000000000E+000  0.99999000000E+000  0.10000001817E-004  0.00000000000E+000  0.10000000000E+001  0.00000000000E+000  0.98007662616E+001  0.10000362961E+004  0.30037600267E+000
                    0.37500000000E-001  0.00000000000E+000 -0.11100000000E+003                   1  0.85883291146E+006  0.10961387145E+002  0.00000000000E+000  0.10000000000E+001  0.00000000000E+000  0.00000000000E+000  0.99999000000E+000  0.99999999170E-005  0.00000000000E+000  0.10000000000E+001  0.00000000000E+000  0.10522756898E+002  0.10000649219E+004  0.30036333270E+000
                    0.37500000000E-001  0.00000000000E+000 -0.12300000000E+003                   1  0.97656647744E+006  0.11106794706E+002  0.00000000000E+000  0.10000000000E+001  0.00000000000E+000  0.00000000000E+000  0.99999000000E+000  0.99999997480E-005  0.00000000000E+000  0.10000000000E+001  0.00000000000E+000  0.11959924753E+002  0.10001059202E+004  0.30035773276E+000
                    0.37500000000E-001  0.00000000000E+000 -0.14700000000E+003                   1  0.12120469705E+007  0.11355837952E+002  0.00000000000E+000  0.10000000000E+001  0.00000000000E+000  0.00000000000E+000  0.99999000000E+000  0.99999997374E-005  0.00000000000E+000  0.10000000000E+001  0.00000000000E+000  0.14832210605E+002  0.10001911353E+004  0.30034617288E+000
                    0.37500000000E-001  0.00000000000E+000 -0.19500000000E+003                   3  0.17311168926E+007  0.11850000381E+002  0.00000000000E+000  0.10000000000E+001  0.00000000000E+000  0.00000000000E+000  0.99999000000E+000  0.99999997473E-005  0.00000000000E+000  0.10000000000E+001  0.00000000000E+000  0.21149953080E+002  0.10003810723E+004  0.30065637744E+000
                    0.37500000000E-001  0.00000000000E+000 -0.25000000000E+000                   4  0.10144288129E+006  0.54978679530E+001  0.89700027719E+000  0.10299972281E+000  0.55566504161E-002  0.99444334958E+000  0.99998383865E+000  0.16161354677E-004  0.99250079822E+000  0.23700930727E-007 -0.19356667822E+005  0.12637574917E+001  0.10000139948E+004  0.30000307999E+000
                    0.37500000000E-001  0.00000000000E+000 -0.75000000000E+000                   4  0.10133634812E+006  0.62560368221E+001  0.88588133966E+000  0.11411866034E+000  0.58634953964E-002  0.99413650460E+000  0.99998386359E+000  0.16136410937E-004  0.96471424575E+000  0.24735237534E-005 -0.15642326621E+005  0.12587714627E+001  0.99999887478E+003  0.30000004000E+000
                    0.79290000000E-001  0.00000000000E+000 -0.25000000000E+000                   1  0.10132813942E+006  0.54946699249E+001  0.94754430711E+000  0.52455692890E-001  0.55617238186E-002  0.99443827618E+000  0.99998385706E+000  0.16142942825E-004  0.10000000000E+001  0.00000000000E+000 -0.11355510244E+006  0.12623386728E+001  0.10000139830E+004  0.30000001000E+000
                    0.79290000000E-001  0.00000000000E+000 -0.75000000000E+000                   1  0.10133437153E+006  0.62598816146E+001  0.89977292030E+000  0.10022707970E+000  0.58651726632E-002  0.99413482734E+000  0.99998386395E+000  0.16136052628E-004  0.99943230080E+000  0.10279929483E-010 -0.20516010406E+005  0.12587283144E+001  0.99999877386E+003  0.30000004000E+000
                    0.79290000000E-001  0.00000000000E+000 -0.15000000000E+001                   1  0.10134368439E+006  0.56346556282E+001  0.91744388736E+000  0.82556112638E-001  0.56153705040E-002  0.99438462950E+000  0.99998385597E+000  0.16144025338E-004  0.10000000000E+001  0.00000000000E+000 -0.31703310969E+005  0.12618574976E+001  0.10000119162E+004  0.30000007000E+000
                    0.79290000000E-001  0.00000000000E+000 -0.27500000000E+001                   1  0.10135913325E+006  0.69689572714E+001  0.91405840233E+000  0.85941597668E-001  0.61582223152E-002  0.99384177768E+000  0.99998386762E+000  0.16132383837E-004  0.10000000000E+001  0.00000000000E+000 -0.28867360592E+005  0.12556267105E+001  0.99997634759E+003  0.30000010001E+000
                    0.79290000000E-001  0.00000000000E+000 -0.47500000000E+001                   1  0.10138372459E+006  0.80335078687E+001  0.91380237374E+000  0.86197626261E-001  0.66233887139E-002  0.99337661129E+000  0.99998387578E+000  0.16124218635E-004  0.10000000000E+001  0.00000000000E+000 -0.28670154034E+005  0.12508252830E+001  0.99992800825E+003  0.30000019001E+000
                    0.79290000000E-001  0.00000000000E+000 -0.85000000000E+001                   1  0.10142975061E+006  0.79765994738E+001  0.91623716734E+000  0.83762832662E-001  0.65946643570E-002  0.99340533564E+000  0.99998386772E+000  0.16132284692E-004  0.10000000000E+001  0.00000000000E+000 -0.30641205933E+005  0.12516681435E+001  0.99993105234E+003  0.30000031001E+000
                    0.79290000000E-001  0.00000000000E+000 -0.13500000000E+002                   1  0.10149116731E+006  0.76459419209E+001  0.91815410507E+000  0.81845894930E-001  0.64431267069E-002  0.99355687329E+000  0.99998385401E+000  0.16145991474E-004  0.10000000000E+001  0.00000000000E+000 -0.32357418674E+005  0.12540155189E+001  0.99994767074E+003  0.30000052002E+000
                    0.79290000000E-001  0.00000000000E+000 -0.18500000000E+002                   1  0.10155263164E+006  0.77251445544E+001  0.89526777653E+000  0.10473222347E+000  0.64742591597E-002  0.99352574084E+000  0.99998384504E+000  0.16154959973E-004  0.98816985405E+000  0.93061752180E-007 -0.18686418370E+005  0.12543975778E+001  0.99994387788E+003  0.30000070003E+000
                    0.79290000000E-001  0.00000000000E+000 -0.23500000000E+002                   1  0.10161417425E+006  0.77455842813E+001  0.87393956162E+000  0.12606043838E+000  0.64793891558E-002  0.99352061084E+000  0.99998383538E+000  0.16164616639E-004  0.93491691413E+000  0.15575409070E-004 -0.12811361804E+005  0.12550625495E+001  0.99994290540E+003  0.30000088003E+000
                    0.79290000000E-001  0.00000000000E+000 -0.28500000000E+002                   1  0.10167579449E+006  0.77501745591E+001  0.86413668038E+000  0.13586331962E+000  0.64774833530E-002  0.99352251665E+000  0.99998382553E+000  0.16174468699E-004  0.91051784428E+000  0.40640593506E-004 -0.11068071669E+005  0.12558045627E+001  0.99994270900E+003  0.29992643003E+000
                    0.79290000000E-001  0.00000000000E+000 -0.33500000000E+002                   1  0.10173791370E+006  0.72884663663E+001  0.73140690583E+000  0.26859309417E+000  0.62716271060E-002  0.99372837289E+000  0.99998381029E+000  0.16189714868E-004  0.59526370481E+000  0.43168820868E-002 -0.32195270865E+004  0.12587969596E+001  0.99996384614E+003  0.29992288004E+000
                    0.79290000000E-001  0.00000000000E+000 -0.38500000000E+002                   1  0.14776438699E+006  0.86340172818E+001  0.82846869943E-001  0.91715313006E+000  0.47281690572E-002  0.99527183094E+000  0.99997642757E+000  0.23572427198E-004  0.00000000000E+000  0.64752799438E+000 -0.17413759355E+003  0.18212484892E+001  0.99991524773E+003  0.30000672221E+000
                    0.79290000000E-001  0.00000000000E+000 -0.42250000000E+002                   1  0.18453967237E+006  0.81226081816E+001  0.67651183752E-001  0.93234881625E+000  0.36543699302E-002  0.99634563007E+000  0.99997051008E+000  0.29489924587E-004  0.00000000000E+000  0.69542488527E+000 -0.15142276322E+003  0.22801328038E+001  0.99996288561E+003  0.30011874226E+000
                    0.79290000000E-001  0.00000000000E+000 -0.44250000000E+002                   1  0.20414292535E+006  0.81201181607E+001  0.54186578721E-001  0.94581342128E+000  0.33021879514E-002  0.99669781205E+000  0.99996735898E+000  0.32641024590E-004  0.00000000000E+000  0.74140135774E+000 -0.13046597834E+003  0.25229064131E+001  0.99997238257E+003  0.30017945228E+000
                    0.79290000000E-001  0.00000000000E+000 -0.45500000000E+002                   1  0.21639619287E+006  0.81249190990E+001  0.47157939736E-001  0.95284206026E+000  0.31158702800E-002  0.99688412972E+000  0.99996538942E+000  0.34610581595E-004  0.00000000000E+000  0.76696144366E+000 -0.11905893167E+003  0.26745947544E+001  0.99997796807E+003  0.30021718229E+000
                    0.79290000000E-001  0.00000000000E+000 -0.46500000000E+002                   1  0.22620471429E+006  0.81269235462E+001  0.45258766225E-001  0.95474123377E+000  0.29809251707E-002  0.99701907483E+000  0.99996381280E+000  0.36187196344E-004  0.00000000000E+000  0.77407580592E+000 -0.11590489886E+003  0.27960337340E+001  0.99998254023E+003  0.30024734230E+000
                    0.79290000000E-001  0.00000000000E+000 -0.47500000000E+002                   1  0.23601195102E+006  0.81306557464E+001  0.42688168537E-001  0.95731183146E+000  0.28575678927E-002  0.99714243211E+000  0.99996223642E+000  0.37763582286E-004  0.00000000000E+000  0.78385697878E+000 -0.11157943151E+003  0.29174365606E+001  0.99998701595E+003  0.30027705231E+000
                    0.79290000000E-001  0.00000000000E+000 -0.48500000000E+002                   1  0.24581971390E+006  0.81345360465E+001  0.40519025004E-001  0.95948097500E+000  0.27440918129E-002  0.99725590819E+000  0.99996065995E+000  0.39340049164E-004  0.00000000000E+000  0.79225275290E+000 -0.10787427990E+003  0.30388410296E+001  0.99999148324E+003  0.30030712232E+000
                    0.79290000000E-001  0.00000000000E+000 -0.49500000000E+002                   1  0.25562759013E+006  0.81404821053E+001  0.38510180470E-001  0.96148981953E+000  0.26397076071E-002  0.99736029239E+000  0.99995908349E+000  0.40916507942E-004  0.00000000000E+000  0.80015006803E+000 -0.10439342049E+003  0.31602196340E+001  0.99999583541E+003  0.30033737233E+000
                    0.79290000000E-001  0.00000000000E+000 -0.50500000000E+002                   1  0.26538390144E+006  0.81641968264E+001  0.12263278470E-001  0.98773672153E+000  0.25466248145E-002  0.99745337519E+000  0.99995751553E+000  0.42484465880E-004  0.00000000000E+000  0.91833737252E+000 -0.51019478110E+002  0.32807412761E+001  0.99999917096E+003  0.30036724233E+000
                    0.79290000000E-001  0.00000000000E+000 -0.51500000000E+002                   1  0.27514155927E+006  0.81634579468E+001  0.00000000000E+000  0.10000000000E+001  0.00000000000E+000  0.00000000000E+000  0.99995913509E+000  0.40864912463E-004  0.00000000000E+000  0.10000000000E+001  0.00000000000E+000  0.34015633401E+001  0.10000038695E+004  0.30038202232E+000
                    0.79290000000E-001  0.00000000000E+000 -0.52500000000E+002                   1  0.28495026930E+006  0.81649677212E+001  0.00000000000E+000  0.10000000000E+001  0.00000000000E+000  0.00000000000E+000  0.99995804318E+000  0.41956820066E-004  0.00000000000E+000  0.10000000000E+001  0.00000000000E+000  0.35229892020E+001  0.10000084666E+004  0.30038205233E+000
                    0.79290000000E-001  0.00000000000E+000 -0.53500000000E+002                   1  0.29475902156E+006  0.81654904347E+001  0.00000000000E+000  0.10000000000E+001  0.00000000000E+000  0.00000000000E+000  0.99995703617E+000  0.42963831263E-004  0.00000000000E+000  0.10000000000E+001  0.00000000000E+000  0.36444274104E+001  0.10000131187E+004  0.30038244234E+000
                    0.79290000000E-001  0.00000000000E+000 -0.54500000000E+002                   1  0.30456781857E+006  0.81660149638E+001  0.00000000000E+000  0.10000000000E+001  0.00000000000E+000  0.00000000000E+000  0.99995653880E+000  0.43461199627E-004  0.00000000000E+000  0.10000000000E+001  0.00000000000E+000  0.37658656968E+001  0.10000177707E+004  0.30038309235E+000
                    0.79290000000E-001  0.00000000000E+000 -0.55500000000E+002                   1  0.31437666095E+006  0.81669590146E+001  0.00000000000E+000  0.10000000000E+001  0.00000000000E+000  0.00000000000E+000  0.99995710985E+000  0.42890146349E-004  0.00000000000E+000  0.10000000000E+001  0.00000000000E+000  0.38872981504E+001  0.10000223991E+004  0.30038396235E+000
                    0.79290000000E-001  0.00000000000E+000 -0.56500000000E+002                   1  0.32418554871E+006  0.81674569896E+001  0.00000000000E+000  0.10000000000E+001  0.00000000000E+000  0.00000000000E+000  0.99995955734E+000  0.40442660849E-004  0.00000000000E+000  0.10000000000E+001  0.00000000000E+000  0.40087368610E+001  0.10000270524E+004  0.30038467236E+000