 VARIABLES       =                 X                 Y                 Z              ROCK              PRES              TEMP             SAT_G             SAT_L         X_WATER_G           X_AIR_G         X_WATER_L           X_AIR_L             REL_G             REL_L           PCAP_GL             DEN_G             DEN_L               POR
 ZONE T=" 0.7200000E+05 SEC"  I =        5 J =        0 K =       30
                    0.37500000000E-001  0.00000000000E+000 -0.60000000000E+001                   2  0.10102227273E+006  0.85195327491E+001  0.50002290435E+000  0.49997709565E+000  0.68712853906E-002  0.99312871461E+000  0.99998393968E+000  0.16060321587E-004  0.18752863167E+000  0.61104190987E-001  0.00000000000E+000  0.12440291656E+001  0.99990004545E+003  0.99999586070E-003
                    0.37500000000E-001  0.00000000000E+000 -0.16000000000E+002                   2  0.10113668136E+006  0.85455474939E+001  0.50002481125E+000  0.49997518875E+000  0.68756481057E-002  0.99312435189E+000  0.99998392160E+000  0.16078397091E-004  0.18753101551E+000  0.61103281146E-001  0.00000000000E+000  0.12453197533E+001  0.99989851310E+003  0.99999621072E-003
                    0.37500000000E-001  0.00000000000E+000 -0.26000000000E+002                   2  0.10127762491E+006  0.86675804875E+001  0.50002385686E+000  0.49997614314E+000  0.69232943897E-002  0.99307670561E+000  0.99998390043E+000  0.16099568719E-004  0.18752982241E+000  0.61103736516E-001  0.00000000000E+000  0.12464794103E+001  0.99989100242E+003  0.99999749062E-003
                    0.37500000000E-001  0.00000000000E+000 -0.36000000000E+002                   2  0.10061416727E+006  0.88245529996E+001  0.50002099428E+000  0.49997900572E+000  0.70439037859E-002  0.99295609621E+000  0.99998400900E+000  0.15990996725E-004  0.18752624388E+000  0.61105102354E-001  0.00000000000E+000  0.12375344485E+001  0.99988061565E+003  0.99999783808E-003
                    0.37500000000E-001  0.00000000000E+000 -0.46000000000E+002                   2  0.10058866091E+006  0.88595920290E+001  0.50002290060E+000  0.49997709940E+000  0.70624872062E-002  0.99293751279E+000  0.99998401354E+000  0.15986464543E-004  0.18752862698E+000  0.61104192776E-001  0.00000000000E+000  0.12370531379E+001  0.99987830597E+003  0.99999783825E-003
                    0.37500000000E-001  0.00000000000E+000 -0.56000000000E+002                   2  0.14734382895E+006  0.89045158038E+001  0.00000000000E+000  0.10000000000E+001  0.00000000000E+000  0.00000000000E+000  0.99998999891E+000  0.10001091447E-004  0.00000000000E+000  0.10000000000E+001  0.00000000000E+000  0.18142121887E+001  0.99989757003E+003  0.99989803923E-003
                    0.37500000000E-001  0.00000000000E+000 -0.66000000000E+002                   2  0.24468069469E+006  0.89365613049E+001  0.00000000000E+000  0.10000000000E+001  0.00000000000E+000  0.00000000000E+000  0.99999000000E+000  0.99999997651E-005  0.00000000000E+000  0.10000000000E+001  0.00000000000E+000  0.30158555968E+001  0.99994170687E+003  0.99989129179E-003
                    0.37500000000E-001  0.00000000000E+000 -0.76000000000E+002                   2  0.34195477953E+006  0.89685279453E+001  0.00000000000E+000  0.10000000000E+001  0.00000000000E+000  0.00000000000E+000  0.99999000000E+000  0.99999997476E-005  0.00000000000E+000  0.10000000000E+001  0.00000000000E+000  0.42164521085E+001  0.99998578109E+003  0.99988348936E-003
                    0.37500000000E-001  0.00000000000E+000 -0.86000000000E+002                   2  0.43933585538E+006  0.89995681802E+001  0.00000000000E+000  0.10000000000E+001  0.00000000000E+000  0.00000000000E+000  0.99999000000E+000  0.99999997474E-005  0.00000000000E+000  0.10000000000E+001  0.00000000000E+000  0.54181154411E+001  0.10000299318E+004  0.99987732168E-003
                    0.37500000000E-001  0.00000000000E+000 -0.96000000000E+002                   2  0.53654425727E+006  0.90315573232E+001  0.00000000000E+000  0.10000000000E+001  0.00000000000E+000  0.00000000000E+000  0.99999000000E+000  0.99999997474E-005  0.00000000000E+000  0.10000000000E+001  0.00000000000E+000  0.66173604179E+001  0.10000738980E+004  0.99987010070E-003
                    0.37500000000E-001  0.00000000000E+000 -0.10110000000E+003                   1  0.82072871209E+006  0.10888492153E+002  0.00000000000E+000  0.10000000000E+001  0.00000000000E+000  0.00000000000E+000  0.99999000000E+000  0.99999997474E-005  0.00000000000E+000  0.10000000000E+001  0.00000000000E+000  0.10058230644E+002  0.10000540659E+004  0.30065665007E+000
                    0.37500000000E-001  0.00000000000E+000 -0.10150000000E+003                   1  0.82440432280E+006  0.10913044450E+002  0.00000000000E+000  0.10000000000E+001  0.00000000000E+000  0.00000000000E+000  0.99999000000E+000  0.99999997474E-005  0.00000000000E+000  0.10000000000E+001  0.00000000000E+000  0.10102420046E+002  0.10000534247E+004  0.30065593003E+000
                    0.37500000000E-001  0.00000000000E+000 -0.10230000000E+003                   1  0.83175566311E+006  0.10923000176E+002  0.00000000000E+000  0.10000000000E+001  0.00000000000E+000  0.00000000000E+000  0.99999000000E+000  0.99999997474E-005  0.00000000000E+000  0.10000000000E+001  0.00000000000E+000  0.10192197496E+002  0.10000559186E+004  0.30065443993E+000
                    0.37500000000E-001  0.00000000000E+000 -0.10380000000E+003                   1  0.84645840935E+006  0.10937999725E+002  0.00000000000E+000  0.10000000000E+001  0.00000000000E+000  0.00000000000E+000  0.99999000000E+000  0.99999997474E-005  0.00000000000E+000  0.10000000000E+001  0.00000000000E+000  0.10371915617E+002  0.10000613782E+004  0.30065443992E+000
                    0.37500000000E-001  0.00000000000E+000 -0.10680000000E+003                   1  0.87586403425E+006  0.10968000412E+002  0.00000000000E+000  0.10000000000E+001  0.00000000000E+000  0.00000000000E+000  0.99999000000E+000  0.99999997474E-005  0.00000000000E+000  0.10000000000E+001  0.00000000000E+000  0.10731296480E+002  0.10000722846E+004  0.30065446992E+000
                    0.37500000000E-001  0.00000000000E+000 -0.11280000000E+003                   1  0.93467578310E+006  0.11027999878E+002  0.00000000000E+000  0.10000000000E+001  0.00000000000E+000  0.00000000000E+000  0.99999000000E+000  0.99999997474E-005  0.00000000000E+000  0.10000000000E+001  0.00000000000E+000  0.11449836697E+002  0.10000940468E+004  0.30065446991E+000
                    0.37500000000E-001  0.00000000000E+000 -0.12480000000E+003                   1  0.10523011876E+007  0.11147999763E+002  0.00000000000E+000  0.10000000000E+001  0.00000000000E+000  0.00000000000E+000  0.99999000000E+000  0.99999997474E-005  0.00000000000E+000  0.10000000000E+001  0.00000000000E+000  0.12886030330E+002  0.10001373683E+004  0.30065449981E+000
                    0.37500000000E-001  0.00000000000E+000 -0.14880000000E+003                   1  0.12875513596E+007  0.11387999535E+002  0.00000000000E+000  0.10000000000E+001  0.00000000000E+000  0.00000000000E+000  0.99999000000E+000  0.99999997474E-005  0.00000000000E+000  0.10000000000E+001  0.00000000000E+000  0.15754774608E+002  0.10002232008E+004  0.30065464995E+000
                    0.37500000000E-001  0.00000000000E+000 -0.19680000000E+003                   3  0.17580960000E+007  0.11868000030E+002  0.00000000000E+000  0.10000000000E+001  0.00000000000E+000  0.00000000000E+000  0.99999000000E+000  0.99999997474E-005  0.00000000000E+000  0.10000000000E+001  0.00000000000E+000  0.21478306484E+002  0.10003916769E+004  0.30065507000E+000
                    0.37500000000E-001  0.00000000000E+000 -0.50000000000E-005                   5  0.10132500000E+006  0.10000000000E+002  0.10000000000E+001  0.00000000000E+000  0.37999749180E-002  0.99620002508E+000  0.00000000000E+000  0.00000000000E+000  0.10000000000E+001  0.00000000000E+000  0.00000000000E+000  0.12435375180E+001  0.99979413505E+003  0.99000001000E+000
                    0.37500000000E-001  0.00000000000E+000 -0.10000000000E+000                   4  0.10265190240E+006  0.99989018453E+001  0.89226354346E+000  0.10773645654E+000  0.74741015744E-002  0.99252589843E+000  0.99998369644E+000  0.16303563888E-004  0.98066065869E+000  0.40673006071E-006 -0.17611902823E+006  0.12570356584E+001  0.99979485307E+003  0.30000331999E+000
                    0.37500000000E-001  0.00000000000E+000 -0.30000000000E+000                   4  0.10138012875E+006  0.99998545656E+001  0.89208030704E+000  0.10791969296E+000  0.75687769754E-002  0.99243122302E+000  0.99998390088E+000  0.16099121273E-004  0.98020269836E+000  0.43632670917E-006 -0.17549701749E+006  0.12413868869E+001  0.99979417310E+003  0.30000001001E+000
                    0.37500000000E-001  0.00000000000E+000 -0.50000000000E+000                   4  0.10133618358E+006  0.99995406811E+001  0.89191913610E+000  0.10808086390E+000  0.75719142841E-002  0.99242808572E+000  0.99998390794E+000  0.16092061496E-004  0.97979989110E+000  0.46351748682E-006 -0.17495292252E+006  0.12408478095E+001  0.99979417815E+003  0.30000001001E+000
                    0.37500000000E-001  0.00000000000E+000 -0.70000000000E+000                   4  0.10134042572E+006  0.99971923374E+001  0.89176750230E+000  0.10823249770E+000  0.75703988404E-002  0.99242960116E+000  0.99998390723E+000  0.16092774416E-004  0.97942092401E+000  0.49010965252E-006 -0.17444357918E+006  0.12409111794E+001  0.99979437338E+003  0.30000004001E+000
                    0.37500000000E-001  0.00000000000E+000 -0.90000000000E+000                   4  0.10133851009E+006  0.99589101735E+001  0.89161490513E+000  0.10838509487E+000  0.75510522320E-002  0.99244894777E+000  0.99998390703E+000  0.16092971596E-004  0.97903955371E+000  0.51787871312E-006 -0.17393348363E+006  0.12410699892E+001  0.99979751135E+003  0.30000004001E+000
                    0.79290000000E-001  0.00000000000E+000 -0.50000000000E-005                   5  0.10132500000E+006  0.10000000000E+002  0.10000000000E+001  0.00000000000E+000  0.37999749180E-002  0.99620002508E+000  0.00000000000E+000  0.00000000000E+000  0.10000000000E+001  0.00000000000E+000  0.00000000000E+000  0.12435375180E+001  0.99979413505E+003  0.99000001000E+000
                    0.79290000000E-001  0.00000000000E+000 -0.10000000000E+000                   1  0.10132955482E+006  0.99991717281E+001  0.89795160405E+000  0.10204839595E+000  0.75722237986E-002  0.99242777620E+000  0.99998390900E+000  0.16091000835E-004  0.99487904366E+000  0.75463571887E-008 -0.19741903333E+006  0.12407680259E+001  0.99979420537E+003  0.30000001000E+000
                    0.79290000000E-001  0.00000000000E+000 -0.30000000000E+000                   1  0.10133161285E+006  0.99996789937E+001  0.89662362193E+000  0.10337637807E+000  0.75723279105E-002  0.99242767209E+000  0.99998390868E+000  0.16091324949E-004  0.99155920486E+000  0.33797636323E-007 -0.19207584693E+006  0.12407909256E+001  0.99979416460E+003  0.30000001001E+000
                    0.79290000000E-001  0.00000000000E+000 -0.50000000000E+000                   1  0.10133389204E+006  0.99993341515E+001  0.89631080653E+000  0.10368919347E+000  0.75719810117E-002  0.99242801899E+000  0.99998390830E+000  0.16091695872E-004  0.99077721200E+000  0.44089671467E-007 -0.19085215420E+006  0.12408206048E+001  0.99979419406E+003  0.30000001000E+000
                    0.79290000000E-001  0.00000000000E+000 -0.70000000000E+000                   1  0.10133620617E+006  0.99966817006E+001  0.89602470436E+000  0.10397529564E+000  0.75704552356E-002  0.99242954476E+000  0.99998390790E+000  0.16092102893E-004  0.99006200569E+000  0.55164500277E-007 -0.18974426816E+006  0.12408617064E+001  0.99979441339E+003  0.30000004001E+000
                    0.79290000000E-001  0.00000000000E+000 -0.90000000000E+000                   1  0.10133852030E+006  0.99823867157E+001  0.89575389208E+000  0.10424610792E+000  0.75629986560E-002  0.99243700134E+000  0.99998390734E+000  0.16092663616E-004  0.98938502845E+000  0.67225335020E-007 -0.18870540696E+006  0.12409582718E+001  0.99979558891E+003  0.30000003999E+000
                    0.79290000000E-001  0.00000000000E+000 -0.60000000000E+001                   1  0.10139733465E+006  0.85699369964E+001  0.88782280300E+000  0.11217719700E+000  0.68692956008E-002  0.99313070440E+000  0.99998388000E+000  0.16119999787E-004  0.96956400726E+000  0.15867039664E-005 -0.16201143912E+006  0.12484259494E+001  0.99989714043E+003  0.30000022000E+000
                    0.79290000000E-001  0.00000000000E+000 -0.16000000000E+002                   1  0.10151700554E+006  0.85967270474E+001  0.86508457468E+000  0.13491542532E+000  0.68736859070E-002  0.99312631409E+000  0.99998386109E+000  0.16138910791E-004  0.91287407764E+000  0.37498080557E-004 -0.11218998608E+006  0.12497772141E+001  0.99989554307E+003  0.30000057999E+000
                    0.79290000000E-001  0.00000000000E+000 -0.26000000000E+002                   1  0.10163768795E+006  0.87161390255E+001  0.61331240108E+000  0.38668759892E+000  0.69214833107E-002  0.99307851669E+000  0.99998384315E+000  0.16156853108E-004  0.35883106367E+000  0.21800359805E-001 -0.17040896051E+005  0.12506967931E+001  0.99988809723E+003  0.30000094000E+000
                    0.79290000000E-001  0.00000000000E+000 -0.36000000000E+002                   1  0.18419181944E+006  0.88708144900E+001  0.74993105083E-001  0.92500689492E+000  0.38523283090E-002  0.99614767169E+000  0.99997057503E+000  0.29424968923E-004  0.00000000000E+000  0.67179958376E+000 -0.16249323746E+004  0.22695254484E+001  0.99991733240E+003  0.30024873997E+000
                    0.79290000000E-001  0.00000000000E+000 -0.46000000000E+002                   1  0.28195880910E+006  0.89079145665E+001  0.61318352700E-001  0.93868164730E+000  0.25208521773E-002  0.99747914782E+000  0.99995486028E+000  0.45139720064E-004  0.00000000000E+000  0.71659507667E+000 -0.14168902923E+004  0.34765081772E+001  0.99996135330E+003  0.30054243999E+000
                    0.79290000000E-001  0.00000000000E+000 -0.56000000000E+002                   1  0.37851250306E+006  0.89544067689E+001  0.00000000000E+000  0.10000000000E+001  0.00000000000E+000  0.00000000000E+000  0.99998923777E+000  0.10762228243E-004  0.00000000000E+000  0.10000000000E+001  0.00000000000E+000  0.46680339586E+001  0.10000041147E+004  0.30065596001E+000
                    0.79290000000E-001  0.00000000000E+000 -0.66000000000E+002                   1  0.47649498262E+006  0.89887383695E+001  0.00000000000E+000  0.10000000000E+001  0.00000000000E+000  0.00000000000E+000  0.99998998893E+000  0.10011072847E-004  0.00000000000E+000  0.10000000000E+001  0.00000000000E+000  0.58770625240E+001  0.10000483293E+004  0.30065592995E+000
                    0.79290000000E-001  0.00000000000E+000 -0.76000000000E+002                   1  0.57448610699E+006  0.90228242627E+001  0.00000000000E+000  0.10000000000E+001  0.00000000000E+000  0.00000000000E+000  0.99998999988E+000  0.10000118891E-004  0.00000000000E+000  0.10000000000E+001  0.00000000000E+000  0.70859098300E+001  0.10000925235E+004  0.30065592995E+000
                    0.79290000000E-001  0.00000000000E+000 -0.86000000000E+002                   1  0.67248590108E+006  0.90561443193E+001  0.00000000000E+000  0.10000000000E+001  0.00000000000E+000  0.00000000000E+000  0.99999000000E+000  0.10000000657E-004  0.00000000000E+000  0.10000000000E+001  0.00000000000E+000  0.82945948836E+001  0.10001367342E+004  0.30065590008E+000
                    0.79290000000E-001  0.00000000000E+000 -0.96000000000E+002                   1  0.77049458313E+006  0.90902922840E+001  0.00000000000E+000  0.10000000000E+001  0.00000000000E+000  0.00000000000E+000  0.99999000000E+000  0.99999997474E-005  0.00000000000E+000  0.10000000000E+001  0.00000000000E+000  0.95030760364E+001  0.10001808506E+004  0.30065590006E+000
                    0.79290000000E-001  0.00000000000E+000 -0.10110000000E+003                   1  0.82072870530E+006  0.10889909581E+002  0.00000000000E+000  0.10000000000E+001  0.00000000000E+000  0.00000000000E+000  0.99999000000E+000  0.99999997474E-005  0.00000000000E+000  0.10000000000E+001  0.00000000000E+000  0.10058179800E+002  0.10000539294E+004  0.30065665005E+000
                    0.79290000000E-001  0.00000000000E+000 -0.10150000000E+003                   1  0.82440432234E+006  0.10913131198E+002  0.00000000000E+000  0.10000000000E+001  0.00000000000E+000  0.00000000000E+000  0.99999000000E+000  0.99999997474E-005  0.00000000000E+000  0.10000000000E+001  0.00000000000E+000  0.10102416920E+002  0.10000534163E+004  0.30065593003E+000
                    0.79290000000E-001  0.00000000000E+000 -0.10230000000E+003                   1  0.83175566308E+006  0.10923000182E+002  0.00000000000E+000  0.10000000000E+001  0.00000000000E+000  0.00000000000E+000  0.99999000000E+000  0.99999997474E-005  0.00000000000E+000  0.10000000000E+001  0.00000000000E+000  0.10192197495E+002  0.10000559186E+004  0.30065443993E+000
                    0.79290000000E-001  0.00000000000E+000 -0.10380000000E+003                   1  0.84645840934E+006  0.10937999725E+002  0.00000000000E+000  0.10000000000E+001  0.00000000000E+000  0.00000000000E+000  0.99999000000E+000  0.99999997474E-005  0.00000000000E+000  0.10000000000E+001  0.00000000000E+000  0.10371915617E+002  0.10000613782E+004  0.30065443992E+000
                    0.79290000000E-001  0.00000000000E+000 -0.10680000000E+003                   1  0.87586403425E+006  0.10968000412E+002  0.00000000000E+000  0.10000000000E+001  0.00000000000E+000  0.00000000000E+000  0.99999000000E+000  0.99999997474E-005  0.00000000000E+000  0.10000000000E+001  0.00000000000E+000  0.10731296480E+002  0.10000722846E+004  0.30065446992E+000
                    0.79290000000E-001  0.00000000000E+000 -0.11280000000E+003                   1  0.93467578310E+006  0.11027999878E+002  0.00000000000E+000  0.10000000000E+001  0.00000000000E+000  0.00000000000E+000  0.99999000000E+000  0.99999997474E-005  0.00000000000E+000  0.10000000000E+001  0.00000000000E+000  0.11449836697E+002  0.10000940468E+004  0.30065446991E+000
                    0.79290000000E-001  0.00000000000E+000 -0.12480000000E+003                   1  0.10523011876E+007  0.11147999763E+002  0.00000000000E+000  0.10000000000E+001  0.00000000000E+000  0.00000000000E+000  0.99999000000E+000  0.99999997474E-005  0.00000000000E+000  0.10000000000E+001  0.00000000000E+000  0.12886030330E+002  0.10001373683E+004  0.30065449981E+000
                    0.79290000000E-001  0.00000000000E+000 -0.14880000000E+003                   1  0.12875513596E+007  0.11387999535E+002  0.00000000000E+000  0.10000000000E+001  0.00000000000E+000  0.00000000000E+000  0.99999000000E+000  0.99999997474E-005  0.00000000000E+000  0.10000000000E+001  0.00000000000E+000  0.15754774608E+002  0.10002232008E+004  0.30065464995E+000
                    0.79290000000E-001  0.00000000000E+000 -0.19680000000E+003                   3  0.17580960000E+007  0.11868000030E+002  0.00000000000E+000  0.10000000000E+001  0.00000000000E+000  0.00000000000E+000  0.99999000000E+000  0.99999997474E-005  0.00000000000E+000  0.10000000000E+001  0.00000000000E+000  0.21478306484E+002  0.10003916769E+004  0.30065507000E+000
                    0.88500000000E-001  0.00000000000E+000 -0.50000000000E-005                   5  0.10132500000E+006  0.10000000000E+002  0.10000000000E+001  0.00000000000E+000  0.37999749180E-002  0.99620002508E+000  0.00000000000E+000  0.00000000000E+000  0.10000000000E+001  0.00000000000E+000  0.00000000000E+000  0.12435375180E+001  0.99979413505E+003  0.99000001000E+000
                    0.88500000000E-001  0.00000000000E+000 -0.10000000000E+000                   1  0.10132951515E+006  0.99991825503E+001  0.89699004807E+000  0.10300995193E+000  0.75722322938E-002  0.99242776771E+000  0.99998390901E+000  0.16090994316E-004  0.99247522649E+000  0.23944237005E-007 -0.19352593660E+006  0.12407674864E+001  0.99979420446E+003  0.30000001000E+000
                    0.88500000000E-001  0.00000000000E+000 -0.30000000000E+000                   1  0.10133161092E+006  0.99996762828E+001  0.89662456512E+000  0.10337543488E+000  0.75723266731E-002  0.99242767333E+000  0.99998390868E+000  0.16091324676E-004  0.99156156270E+000  0.33769318119E-007 -0.19207955626E+006  0.12407909148E+001  0.99979416482E+003  0.30000001000E+000
                    0.88500000000E-001  0.00000000000E+000 -0.50000000000E+000                   1  0.10133389192E+006  0.99993320680E+001  0.89631080636E+000  0.10368919364E+000  0.75719799587E-002  0.99242802004E+000  0.99998390830E+000  0.16091695880E-004  0.99077721159E+000  0.44089677353E-007 -0.19085215356E+006  0.12408206132E+001  0.99979419423E+003  0.30000001000E+000
                    0.88500000000E-001  0.00000000000E+000 -0.70000000000E+000                   1  0.10133620607E+006  0.99966847471E+001  0.89602565781E+000  0.10397434219E+000  0.75704567957E-002  0.99242954320E+000  0.99998390790E+000  0.16092102837E-004  0.99006438912E+000  0.55124813615E-007 -0.18974794246E+006  0.12408616907E+001  0.99979441314E+003  0.30000004001E+000
                    0.88500000000E-001  0.00000000000E+000 -0.90000000000E+000                   1  0.10133852065E+006  0.99828895060E+001  0.89575481431E+000  0.10424518569E+000  0.75632546827E-002  0.99243674532E+000  0.99998390734E+000  0.16092657036E-004  0.98938733383E+000  0.67181537128E-007 -0.18870892867E+006  0.12409558808E+001  0.99979554765E+003  0.30000003999E+000
                    0.88500000000E-001  0.00000000000E+000 -0.60000000000E+001                   1  0.10139737066E+006  0.86665391180E+001  0.88820334156E+000  0.11179665844E+000  0.69145942166E-002  0.99308540578E+000  0.99998388117E+000  0.16118829848E-004  0.97051471926E+000  0.14424982042E-005 -0.16314569382E+006  0.12479643550E+001  0.99989112504E+003  0.30000022001E+000
                    0.88500000000E-001  0.00000000000E+000 -0.16000000000E+002                   1  0.10151704210E+006  0.86947685955E+001  0.86513094604E+000  0.13486905396E+000  0.69196811411E-002  0.99308031886E+000  0.99998386228E+000  0.16137721460E-004  0.91298936370E+000  0.37348658604E-004 -0.11226469452E+006  0.12493082620E+001  0.99988939810E+003  0.30000058001E+000
                    0.88500000000E-001  0.00000000000E+000 -0.26000000000E+002                   1  0.10163772281E+006  0.88090002537E+001  0.61331266103E+000  0.38668733897E+000  0.69653036992E-002  0.99303469630E+000  0.99998384428E+000  0.16155718736E-004  0.35883152299E+000  0.21800299075E-001 -0.17040916344E+005  0.12502522702E+001  0.99988211672E+003  0.30000094001E+000
                    0.88500000000E-001  0.00000000000E+000 -0.36000000000E+002                   1  0.18419240398E+006  0.89592996118E+001  0.75032182607E-001  0.92496781739E+000  0.38754822470E-002  0.99612451775E+000  0.99997057603E+000  0.29423966721E-004  0.00000000000E+000  0.67167632850E+000 -0.16255163747E+004  0.22687890582E+001  0.99991141784E+003  0.30024873999E+000
                    0.88500000000E-001  0.00000000000E+000 -0.46000000000E+002                   1  0.28195912058E+006  0.90002945924E+001  0.61338379588E-001  0.93866162041E+000  0.25366603280E-002  0.99746333967E+000  0.99995486138E+000  0.45138623066E-004  0.00000000000E+000  0.71652690110E+000 -0.14172012636E+004  0.34753405356E+001  0.99995510351E+003  0.30054243999E+000
                    0.88500000000E-001  0.00000000000E+000 -0.56000000000E+002                   1  0.37851250312E+006  0.90499260444E+001  0.00000000000E+000  0.10000000000E+001  0.00000000000E+000  0.00000000000E+000  0.99998923777E+000  0.10762228257E-004  0.00000000000E+000  0.10000000000E+001  0.00000000000E+000  0.46664194693E+001  0.99999756293E+003  0.30065596001E+000
                    0.88500000000E-001  0.00000000000E+000 -0.66000000000E+002                   1  0.47649498269E+006  0.90885854816E+001  0.00000000000E+000  0.10000000000E+001  0.00000000000E+000  0.00000000000E+000  0.99998998893E+000  0.10011072848E-004  0.00000000000E+000  0.10000000000E+001  0.00000000000E+000  0.58749473215E+001  0.10000414039E+004  0.30065592995E+000
                    0.88500000000E-001  0.00000000000E+000 -0.76000000000E+002                   1  0.57448610705E+006  0.91267729067E+001  0.00000000000E+000  0.10000000000E+001  0.00000000000E+000  0.00000000000E+000  0.99998999988E+000  0.10000118891E-004  0.00000000000E+000  0.10000000000E+001  0.00000000000E+000  0.70832627971E+001  0.10000852342E+004  0.30065592995E+000
                    0.88500000000E-001  0.00000000000E+000 -0.86000000000E+002                   1  0.67248590115E+006  0.91644330996E+001  0.00000000000E+000  0.10000000000E+001  0.00000000000E+000  0.00000000000E+000  0.99999000000E+000  0.10000000657E-004  0.00000000000E+000  0.10000000000E+001  0.00000000000E+000  0.82913739937E+001  0.10001290592E+004  0.30065590008E+000
                    0.88500000000E-001  0.00000000000E+000 -0.96000000000E+002                   1  0.77049458320E+006  0.92027177804E+001  0.00000000000E+000  0.10000000000E+001  0.00000000000E+000  0.00000000000E+000  0.99999000000E+000  0.99999997474E-005  0.00000000000E+000  0.10000000000E+001  0.00000000000E+000  0.94992512857E+001  0.10001727967E+004  0.30065590006E+000
                    0.88500000000E-001  0.00000000000E+000 -0.10110000000E+003                   1  0.82072870382E+006  0.10890255532E+002  0.00000000000E+000  0.10000000000E+001  0.00000000000E+000  0.00000000000E+000  0.99999000000E+000  0.99999997474E-005  0.00000000000E+000  0.10000000000E+001  0.00000000000E+000  0.10058167393E+002  0.10000538960E+004  0.30065665005E+000
                    0.88500000000E-001  0.00000000000E+000 -0.10150000000E+003                   1  0.82440432223E+006  0.10913151840E+002  0.00000000000E+000  0.10000000000E+001  0.00000000000E+000  0.00000000000E+000  0.99999000000E+000  0.99999997474E-005  0.00000000000E+000  0.10000000000E+001  0.00000000000E+000  0.10102416177E+002  0.10000534143E+004  0.30065593003E+000
                    0.88500000000E-001  0.00000000000E+000 -0.10230000000E+003                   1  0.83175566307E+006  0.10923000183E+002  0.00000000000E+000  0.10000000000E+001  0.00000000000E+000  0.00000000000E+000  0.99999000000E+000  0.99999997474E-005  0.00000000000E+000  0.10000000000E+001  0.00000000000E+000  0.10192197495E+002  0.10000559186E+004  0.30065443993E+000
                    0.88500000000E-001  0.00000000000E+000 -0.10380000000E+003                   1  0.84645840934E+006  0.10937999725E+002  0.00000000000E+000  0.10000000000E+001  0.00000000000E+000  0.00000000000E+000  0.99999000000E+000  0.99999997474E-005  0.00000000000E+000  0.10000000000E+001  0.00000000000E+000  0.10371915617E+002  0.10000613782E+004  0.30065443992E+000
                    0.88500000000E-001  0.00000000000E+000 -0.10680000000E+003                   1  0.87586403425E+006  0.10968000412E+002  0.00000000000E+000  0.10000000000E+001  0.00000000000E+000  0.00000000000E+000  0.99999000000E+000  0.99999997474E-005  0.00000000000E+000  0.10000000000E+001  0.00000000000E+000  0.10731296480E+002  0.10000722846E+004  0.30065446992E+000
                    0.88500000000E-001  0.00000000000E+000 -0.11280000000E+003                   1  0.93467578310E+006  0.11027999878E+002  0.00000000000E+000  0.10000000000E+001  0.00000000000E+000  0.00000000000E+000  0.99999000000E+000  0.99999997474E-005  0.00000000000E+000  0.10000000000E+001  0.00000000000E+000  0.11449836697E+002  0.10000940468E+004  0.30065446991E+000
                    0.88500000000E-001  0.00000000000E+000 -0.12480000000E+003                   1  0.10523011876E+007  0.11147999763E+002  0.00000000000E+000  0.10000000000E+001  0.00000000000E+000  0.00000000000E+000  0.99999000000E+000  0.99999997474E-005  0.00000000000E+000  0.10000000000E+001  0.00000000000E+000  0.12886030330E+002  0.10001373683E+004  0.30065449981E+000
                    0.88500000000E-001  0.00000000000E+000 -0.14880000000E+003                   1  0.12875513596E+007  0.11387999535E+002  0.00000000000E+000  0.10000000000E+001  0.00000000000E+000  0.00000000000E+000  0.99999000000E+000  0.99999997474E-005  0.00000000000E+000  0.10000000000E+001  0.00000000000E+000  0.15754774608E+002  0.10002232008E+004  0.30065464995E+000
                    0.88500000000E-001  0.00000000000E+000 -0.19680000000E+003                   3  0.17580960000E+007  0.11868000030E+002  0.00000000000E+000  0.10000000000E+001  0.00000000000E+000  0.00000000000E+000  0.99999000000E+000  0.99999997474E-005  0.00000000000E+000  0.10000000000E+001  0.00000000000E+000  0.21478306484E+002  0.10003916769E+004  0.30065507000E+000
                    0.99040000000E-001  0.00000000000E+000 -0.50000000000E-005                   5  0.10132500000E+006  0.10000000000E+002  0.10000000000E+001  0.00000000000E+000  0.37999749180E-002  0.99620002508E+000  0.00000000000E+000  0.00000000000E+000  0.10000000000E+001  0.00000000000E+000  0.00000000000E+000  0.12435375180E+001  0.99979413505E+003  0.99000001000E+000
                    0.99040000000E-001  0.00000000000E+000 -0.10000000000E+000                   1  0.10132947656E+006  0.99991936688E+001  0.89699098681E+000  0.10300901319E+000  0.75722408593E-002  0.99242775914E+000  0.99998390901E+000  0.16090987966E-004  0.99247757325E+000  0.23921839349E-007 -0.19352967492E+006  0.12407669587E+001  0.99979420353E+003  0.30000001000E+000
                    0.99040000000E-001  0.00000000000E+000 -0.30000000000E+000                   1  0.10133160849E+006  0.99996743251E+001  0.89662551881E+000  0.10337448119E+000  0.75723258571E-002  0.99242767414E+000  0.99998390868E+000  0.16091324311E-004  0.99156394682E+000  0.33740700340E-007 -0.19208330706E+006  0.12407908943E+001  0.99979416498E+003  0.30000001000E+000