        VARIABLES=                 X                 Y                 Z              HEAT      FLOW_WATER_G        FLOW_AIR_G      FLOW_WATER_L        FLOW_AIR_L     FDIFF_WATER_G       FDIFF_AIR_G     FDIFF_WATER_L       FDIFF_AIR_L
 ZONE T=" 0.3153570E+08 SEC"  I =     2419 
                    0.74998205398E-001  0.00000000000E+000 -0.25000000000E+000 -0.20958421014E-002 -0.38506040173E-012 -0.68254027627E-010 -0.22499497186E-012 -0.36324647488E-017 -0.10950691261E-010  0.10950691261E-010  0.00000000000E+000 -0.00000000000E+000
                    0.74998205398E-001  0.00000000000E+000 -0.75000000000E+000  0.23375458266E-002 -0.10430744568E-012 -0.17249822882E-010  0.14182170162E-011  0.22879288966E-016  0.56778678461E-010 -0.56778678461E-010  0.00000000000E+000 -0.00000000000E+000
                    0.37597140865E-001  0.00000000000E+000 -0.15000000000E+001  0.58664852447E+001  0.00000000000E+000  0.00000000000E+000  0.00000000000E+000  0.00000000000E+000 -0.82773706614E-012  0.82773706614E-012 -0.00000000000E+000  0.00000000000E+000
                    0.37597140865E-001  0.00000000000E+000 -0.27500000000E+001  0.88572026432E+001  0.00000000000E+000  0.00000000000E+000  0.00000000000E+000  0.00000000000E+000 -0.12686566942E-011  0.12686566942E-011 -0.32278834539E-025  0.32278834542E-025
                    0.37597140865E-001  0.00000000000E+000 -0.47500000000E+001  0.14749154517E+002  0.00000000000E+000  0.00000000000E+000  0.00000000000E+000  0.00000000000E+000 -0.20455243069E-011  0.20455243069E-011 -0.13742719174E-023  0.13742719175E-023
                    0.37597140865E-001  0.00000000000E+000 -0.85000000000E+001  0.29478446680E+002  0.00000000000E+000  0.00000000000E+000  0.00000000000E+000  0.00000000000E+000 -0.39460893122E-011  0.39460893122E-011 -0.23310634815E-023  0.23310634822E-023
                    0.37597140865E-001  0.00000000000E+000 -0.13500000000E+002  0.38543153766E+002  0.00000000000E+000  0.00000000000E+000  0.00000000000E+000  0.00000000000E+000 -0.58453336790E-011  0.58453336790E-011 -0.13909855434E-019  0.13909855442E-019
                    0.37597140865E-001  0.00000000000E+000 -0.18500000000E+002  0.38549812122E+002  0.00000000000E+000  0.00000000000E+000  0.00000000000E+000  0.00000000000E+000 -0.58419090570E-011  0.58419090570E-011 -0.15699099205E-019  0.15699099210E-019
                    0.37597140865E-001  0.00000000000E+000 -0.23500000000E+002  0.47353277848E+002  0.00000000000E+000  0.00000000000E+000  0.00000000000E+000  0.00000000000E+000 -0.78921716115E-011  0.78921716115E-011 -0.64385205380E-019  0.64385205410E-019
                    0.37597140865E-001  0.00000000000E+000 -0.28500000000E+002  0.42255346416E+002  0.00000000000E+000  0.00000000000E+000  0.00000000000E+000  0.00000000000E+000 -0.35717826336E-011  0.35717826336E-011 -0.62186540514E-017  0.62186540599E-017
                    0.37597140865E-001  0.00000000000E+000 -0.33500000000E+002  0.59331351867E+002  0.00000000000E+000  0.00000000000E+000  0.00000000000E+000  0.00000000000E+000 -0.00000000000E+000  0.00000000000E+000 -0.31763197435E-015  0.31763197437E-015
                    0.37597140865E-001  0.00000000000E+000 -0.38500000000E+002  0.59231438101E+002  0.00000000000E+000  0.00000000000E+000  0.00000000000E+000  0.00000000000E+000 -0.00000000000E+000  0.00000000000E+000 -0.61608853113E-015  0.61608853114E-015
                    0.37597140865E-001  0.00000000000E+000 -0.42250000000E+002  0.29027550307E+002  0.00000000000E+000  0.00000000000E+000  0.00000000000E+000  0.00000000000E+000 -0.00000000000E+000  0.00000000000E+000 -0.47251775949E-015  0.47251775949E-015
                    0.37597140865E-001  0.00000000000E+000 -0.44250000000E+002  0.17391922641E+002  0.00000000000E+000  0.00000000000E+000  0.00000000000E+000  0.00000000000E+000 -0.00000000000E+000  0.00000000000E+000 -0.34647098884E-015  0.34647098884E-015
                    0.37597140865E-001  0.00000000000E+000 -0.45500000000E+002  0.11588594961E+002  0.00000000000E+000  0.00000000000E+000  0.00000000000E+000  0.00000000000E+000 -0.00000000000E+000  0.00000000000E+000 -0.25525423893E-015  0.25525423893E-015
                    0.37597140865E-001  0.00000000000E+000 -0.46500000000E+002  0.11592783539E+002  0.00000000000E+000  0.00000000000E+000  0.00000000000E+000  0.00000000000E+000 -0.00000000000E+000  0.00000000000E+000 -0.27342914768E-015  0.27342914768E-015
                    0.37597140865E-001  0.00000000000E+000 -0.47500000000E+002  0.11580397714E+002  0.00000000000E+000  0.00000000000E+000  0.00000000000E+000  0.00000000000E+000 -0.00000000000E+000  0.00000000000E+000 -0.28951469664E-015  0.28951469663E-015
                    0.37597140865E-001  0.00000000000E+000 -0.48500000000E+002  0.11585169054E+002  0.00000000000E+000  0.00000000000E+000  0.00000000000E+000  0.00000000000E+000 -0.00000000000E+000  0.00000000000E+000 -0.30558330215E-015  0.30558330215E-015
                    0.37597140865E-001  0.00000000000E+000 -0.49500000000E+002  0.11587890168E+002  0.00000000000E+000  0.00000000000E+000  0.00000000000E+000  0.00000000000E+000 -0.00000000000E+000  0.00000000000E+000 -0.32175028990E-015  0.32175028990E-015
                    0.37597140865E-001  0.00000000000E+000 -0.50500000000E+002  0.11575137424E+002  0.00000000000E+000  0.00000000000E+000  0.00000000000E+000  0.00000000000E+000 -0.00000000000E+000  0.00000000000E+000 -0.34184145980E-015  0.34184145980E-015
                    0.37597140865E-001  0.00000000000E+000 -0.51500000000E+002  0.11493329121E+002  0.00000000000E+000  0.00000000000E+000  0.00000000000E+000  0.00000000000E+000 -0.00000000000E+000 -0.00000000000E+000 -0.59268099476E-014  0.59268099476E-014
                    0.37597140865E-001  0.00000000000E+000 -0.52500000000E+002  0.11497111332E+002  0.00000000000E+000  0.00000000000E+000  0.00000000000E+000  0.00000000000E+000 -0.00000000000E+000 -0.00000000000E+000 -0.51248664541E-014  0.51248664541E-014
                    0.37597140865E-001  0.00000000000E+000 -0.53500000000E+002  0.11496512353E+002  0.00000000000E+000  0.00000000000E+000  0.00000000000E+000  0.00000000000E+000 -0.00000000000E+000 -0.00000000000E+000 -0.29790371334E-014  0.29790371334E-014
                    0.37597140865E-001  0.00000000000E+000 -0.54500000000E+002  0.11495628684E+002  0.00000000000E+000  0.00000000000E+000  0.00000000000E+000  0.00000000000E+000  0.00000000000E+000  0.00000000000E+000 -0.13520028218E-014  0.13520028218E-014
                    0.37597140865E-001  0.00000000000E+000 -0.55500000000E+002  0.11491101301E+002  0.00000000000E+000  0.00000000000E+000  0.00000000000E+000  0.00000000000E+000  0.00000000000E+000  0.00000000000E+000 -0.51337901250E-015  0.51337901250E-015
                    0.37597140865E-001  0.00000000000E+000 -0.56500000000E+002  0.11492062465E+002  0.00000000000E+000  0.00000000000E+000  0.00000000000E+000  0.00000000000E+000  0.00000000000E+000  0.00000000000E+000 -0.16504277313E-015  0.16504277314E-015
                    0.37597140865E-001  0.00000000000E+000 -0.57750000000E+002  0.17244839389E+002  0.00000000000E+000  0.00000000000E+000  0.00000000000E+000  0.00000000000E+000  0.00000000000E+000  0.00000000000E+000 -0.50271596848E-016  0.50271596824E-016
                    0.37597140865E-001  0.00000000000E+000 -0.59750000000E+002  0.28739108894E+002  0.00000000000E+000  0.00000000000E+000  0.00000000000E+000  0.00000000000E+000  0.00000000000E+000  0.00000000000E+000 -0.96443571772E-017  0.96443571717E-017
                    0.37597140865E-001  0.00000000000E+000 -0.63500000000E+002  0.56817849137E+002  0.00000000000E+000  0.00000000000E+000  0.00000000000E+000  0.00000000000E+000  0.00000000000E+000  0.00000000000E+000 -0.10374841776E-017  0.10374841572E-017
                    0.37597140865E-001  0.00000000000E+000 -0.68500000000E+002  0.56832475333E+002  0.00000000000E+000  0.00000000000E+000  0.00000000000E+000  0.00000000000E+000  0.00000000000E+000  0.00000000000E+000 -0.50651454943E-019  0.50651299602E-019
                    0.37597140865E-001  0.00000000000E+000 -0.76000000000E+002  0.11292153505E+003  0.00000000000E+000  0.00000000000E+000  0.00000000000E+000  0.00000000000E+000  0.00000000000E+000  0.00000000000E+000 -0.23975836818E-020  0.23976462578E-020
                    0.37597140865E-001  0.00000000000E+000 -0.86000000000E+002  0.11274891394E+003  0.00000000000E+000  0.00000000000E+000  0.00000000000E+000  0.00000000000E+000  0.00000000000E+000  0.00000000000E+000 -0.15228909410E-021  0.15212406826E-021
                    0.37597140865E-001  0.00000000000E+000 -0.93500000000E+002  0.60215672710E+002  0.00000000000E+000  0.00000000000E+000  0.00000000000E+000  0.00000000000E+000  0.00000000000E+000  0.00000000000E+000  0.99093628478E-023 -0.10083312122E-022
                    0.37597140865E-001  0.00000000000E+000 -0.97500000000E+002  0.36115746190E+002  0.00000000000E+000  0.00000000000E+000  0.00000000000E+000  0.00000000000E+000  0.00000000000E+000  0.00000000000E+000 -0.95470822125E-023  0.95480303065E-023
                    0.37597140865E-001  0.00000000000E+000 -0.10000000000E+003  0.24011271817E+002  0.00000000000E+000  0.00000000000E+000  0.00000000000E+000  0.00000000000E+000  0.00000000000E+000  0.00000000000E+000  0.25037193554E-023 -0.24517209013E-023
                    0.74998205398E-001  0.00000000000E+000 -0.10200000000E+003  0.77074847652E-001  0.00000000000E+000  0.00000000000E+000  0.10769323177E-006  0.10769430605E-011  0.00000000000E+000  0.00000000000E+000 -0.14543918610E-020  0.14577060329E-020
                    0.74998205398E-001  0.00000000000E+000 -0.10500000000E+003 -0.16804300143E-003  0.00000000000E+000  0.00000000000E+000 -0.31014944941E-007 -0.31015254492E-012  0.00000000000E+000  0.00000000000E+000 -0.19926710492E-020  0.19941170114E-020
                    0.74998205398E-001  0.00000000000E+000 -0.11100000000E+003 -0.67795406858E-004  0.00000000000E+000  0.00000000000E+000 -0.14165807014E-008 -0.14165948319E-013  0.00000000000E+000  0.00000000000E+000 -0.19925610782E-020  0.19798884164E-020
                    0.74998205398E-001  0.00000000000E+000 -0.12300000000E+003 -0.11261088062E-005  0.00000000000E+000  0.00000000000E+000 -0.18014964439E-010 -0.18015143887E-015  0.00000000000E+000  0.00000000000E+000  0.60541075999E-019 -0.60526913981E-019
                    0.74998205398E-001  0.00000000000E+000 -0.14700000000E+003  0.51617792162E-006  0.00000000000E+000  0.00000000000E+000  0.72953103448E-011  0.72953827712E-016  0.00000000000E+000  0.00000000000E+000  0.29981045984E-018 -0.29984093521E-018
                    0.74998205398E-001  0.00000000000E+000 -0.19500000000E+003 -0.62671412216E-002  0.00000000000E+000  0.00000000000E+000 -0.74677985824E-007 -0.74678730742E-012  0.00000000000E+000  0.00000000000E+000 -0.82118937786E-020  0.81651506387E-020
                    0.83584331342E-001  0.00000000000E+000 -0.25000000000E+000 -0.13102358239E-002 -0.29418999197E-013 -0.52150092784E-011  0.00000000000E+000  0.00000000000E+000 -0.26552877830E-011  0.26552877830E-011 -0.00000000000E+000  0.00000000000E+000
                    0.83584331342E-001  0.00000000000E+000 -0.75000000000E+000  0.14151669412E-001  0.67335255861E-012  0.11131825821E-009 -0.10981112606E-012 -0.17715204769E-017  0.28706368500E-010 -0.28706368500E-010  0.41289425006E-032 -0.41289430815E-032
                    0.83584331342E-001  0.00000000000E+000 -0.15000000000E+001  0.61746523188E+001  0.91844946098E-010  0.15673446947E-007  0.00000000000E+000  0.00000000000E+000  0.15740650325E-007 -0.15740650325E-007  0.00000000000E+000 -0.00000000000E+000
                    0.83584331342E-001  0.00000000000E+000 -0.27500000000E+001  0.93273991270E+001  0.16273135072E-009  0.24213204755E-007 -0.28337772358E-007 -0.45681685249E-012  0.24526183857E-007 -0.24526183857E-007  0.00000000000E+000 -0.00000000000E+000
                    0.83584331342E-001  0.00000000000E+000 -0.47500000000E+001  0.15531175297E+002  0.34804407551E-009  0.45036640514E-007 -0.57384960967E-007 -0.92382011187E-012  0.45603155002E-007 -0.45603155002E-007  0.00000000000E+000 -0.00000000000E+000
                    0.83584331342E-001  0.00000000000E+000 -0.85000000000E+001  0.31042686408E+002  0.82137054873E-009  0.97629319467E-007 -0.12280210209E-006 -0.19756908213E-011  0.98709754657E-007 -0.98709754657E-007  0.00000000000E+000 -0.00000000000E+000
                    0.83584331342E-001  0.00000000000E+000 -0.13500000000E+002  0.40727740742E+002  0.80118371360E-009  0.10112658912E-006 -0.11972562985E-006 -0.19288393674E-011  0.10265925561E-006 -0.10265925561E-006  0.12111533348E-021 -0.12111533144E-021
                    0.83584331342E-001  0.00000000000E+000 -0.18500000000E+002  0.40735060656E+002  0.81061027321E-009  0.10162753415E-006 -0.12261164913E-006 -0.19763307411E-011  0.10315997119E-006 -0.10315997119E-006  0.14375578253E-021 -0.14375578238E-021
                    0.83584331342E-001  0.00000000000E+000 -0.23500000000E+002  0.50211622992E+002  0.86649432146E-009  0.11571056658E-006 -0.15251747217E-006 -0.24617632364E-011  0.11795719557E-006 -0.11795719557E-006  0.65510331441E-021 -0.65510332724E-021
                    0.83584331342E-001  0.00000000000E+000 -0.28500000000E+002  0.45032957650E+002  0.12130998620E-010  0.13614171789E-008 -0.26605819943E-008 -0.42870433343E-013  0.23182222874E-008 -0.23182222874E-008  0.12940387155E-015 -0.12940387183E-015
                    0.83584331342E-001  0.00000000000E+000 -0.33500000000E+002  0.63440538517E+002  0.00000000000E+000  0.00000000000E+000 -0.13065621662E-006 -0.31271432936E-011  0.00000000000E+000 -0.00000000000E+000  0.40865887759E-015 -0.40865890720E-015
                    0.83584331342E-001  0.00000000000E+000 -0.38500000000E+002  0.63342334143E+002  0.00000000000E+000  0.00000000000E+000 -0.15352327241E-006 -0.48819947399E-011  0.00000000000E+000 -0.00000000000E+000  0.38502771616E-015 -0.38502771317E-015
                    0.83584331342E-001  0.00000000000E+000 -0.42250000000E+002  0.31124438861E+002  0.00000000000E+000  0.00000000000E+000 -0.58701662395E-007 -0.22128757386E-011  0.00000000000E+000 -0.00000000000E+000  0.17237696852E-015 -0.17237697719E-015
                    0.83584331342E-001  0.00000000000E+000 -0.44250000000E+002  0.18650541799E+002  0.00000000000E+000  0.00000000000E+000 -0.29678785446E-007 -0.12121404357E-011  0.00000000000E+000 -0.00000000000E+000  0.95275281043E-016 -0.95275292683E-016
                    0.83584331342E-001  0.00000000000E+000 -0.45500000000E+002  0.12428131273E+002  0.00000000000E+000  0.00000000000E+000 -0.18745373716E-007 -0.80245052325E-012  0.00000000000E+000 -0.00000000000E+000  0.59919805632E-016 -0.59919809369E-016
                    0.83584331342E-001  0.00000000000E+000 -0.46500000000E+002  0.12432879553E+002  0.00000000000E+000  0.00000000000E+000 -0.19376341084E-007 -0.85994623128E-012  0.00000000000E+000 -0.00000000000E+000  0.57829960748E-016 -0.57829962618E-016
                    0.83584331342E-001  0.00000000000E+000 -0.47500000000E+002  0.12419498138E+002  0.00000000000E+000  0.00000000000E+000 -0.18993478675E-007 -0.87283939010E-012  0.00000000000E+000 -0.00000000000E+000  0.55829915117E-016 -0.55829909886E-016
                    0.83584331342E-001  0.00000000000E+000 -0.48500000000E+002  0.12425449714E+002  0.00000000000E+000  0.00000000000E+000 -0.18593210536E-007 -0.88370212967E-012  0.00000000000E+000 -0.00000000000E+000  0.54127762272E-016 -0.54127769519E-016
                    0.83584331342E-001  0.00000000000E+000 -0.49500000000E+002  0.12428648107E+002  0.00000000000E+000  0.00000000000E+000 -0.17876906301E-007 -0.87778756383E-012  0.00000000000E+000 -0.00000000000E+000  0.52348609757E-016 -0.52348609614E-016
                    0.83584331342E-001  0.00000000000E+000 -0.50500000000E+002  0.12415596662E+002  0.00000000000E+000  0.00000000000E+000 -0.13428918849E-007 -0.68049946445E-012  0.00000000000E+000 -0.00000000000E+000  0.43793652888E-016 -0.43793652916E-016
                    0.83584331342E-001  0.00000000000E+000 -0.51500000000E+002  0.12348338003E+002  0.00000000000E+000  0.00000000000E+000  0.74653418372E-008  0.29742273273E-012  0.00000000000E+000  0.00000000000E+000  0.20015944929E-013 -0.20015944921E-013
                    0.83584331342E-001  0.00000000000E+000 -0.52500000000E+002  0.12352235692E+002  0.00000000000E+000  0.00000000000E+000 -0.68542251668E-008 -0.19314601647E-012  0.00000000000E+000  0.00000000000E+000  0.21475232405E-013 -0.21475232400E-013
                    0.83584331342E-001  0.00000000000E+000 -0.53500000000E+002  0.12351417172E+002  0.00000000000E+000  0.00000000000E+000 -0.84523524639E-008 -0.16113260519E-012  0.00000000000E+000  0.00000000000E+000  0.17452517998E-013 -0.17452517997E-013
                    0.83584331342E-001  0.00000000000E+000 -0.54500000000E+002  0.12350308387E+002  0.00000000000E+000  0.00000000000E+000 -0.88210914799E-008 -0.12152699184E-012  0.00000000000E+000  0.00000000000E+000  0.10691820097E-013 -0.10691820107E-013
                    0.83584331342E-001  0.00000000000E+000 -0.55500000000E+002  0.12344745081E+002  0.00000000000E+000  0.00000000000E+000 -0.89119328155E-008 -0.10105256247E-012  0.00000000000E+000  0.00000000000E+000  0.51212345892E-014 -0.51212345868E-014
                    0.83584331342E-001  0.00000000000E+000 -0.56500000000E+002  0.12345916668E+002  0.00000000000E+000  0.00000000000E+000 -0.89298513439E-008 -0.92964277010E-013  0.00000000000E+000  0.00000000000E+000  0.19965829247E-014 -0.19965829222E-014
                    0.83584331342E-001  0.00000000000E+000 -0.57750000000E+002  0.18527056868E+002  0.00000000000E+000  0.00000000000E+000 -0.13485988276E-007 -0.13595023432E-012  0.00000000000E+000  0.00000000000E+000  0.72489414046E-015 -0.72489414525E-015
                    0.83584331342E-001  0.00000000000E+000 -0.59750000000E+002  0.30875031864E+002  0.00000000000E+000  0.00000000000E+000 -0.22846817618E-007 -0.22867783261E-012  0.00000000000E+000  0.00000000000E+000  0.16262536697E-015 -0.16262537134E-015
                    0.83584331342E-001  0.00000000000E+000 -0.63500000000E+002  0.61090815209E+002  0.00000000000E+000  0.00000000000E+000 -0.45812092491E-007 -0.45814748540E-012  0.00000000000E+000  0.00000000000E+000  0.20005963695E-016 -0.20005930179E-016
                    0.83584331342E-001  0.00000000000E+000 -0.68500000000E+002  0.61108544988E+002  0.00000000000E+000  0.00000000000E+000 -0.45805475216E-007 -0.45806037159E-012  0.00000000000E+000  0.00000000000E+000  0.10847382931E-017 -0.10847310226E-017
                    0.83584331342E-001  0.00000000000E+000 -0.76000000000E+002  0.12148304399E+003  0.00000000000E+000  0.00000000000E+000 -0.93229592910E-007 -0.93230527095E-012  0.00000000000E+000  0.00000000000E+000  0.65859226817E-019 -0.65933156383E-019
                    0.83584331342E-001  0.00000000000E+000 -0.86000000000E+002  0.12132239318E+003  0.00000000000E+000  0.00000000000E+000 -0.90409983417E-007 -0.90410884544E-012  0.00000000000E+000  0.00000000000E+000  0.98091843833E-020 -0.97748424254E-020
                    0.83584331342E-001  0.00000000000E+000 -0.93500000000E+002  0.64710382692E+002  0.00000000000E+000  0.00000000000E+000 -0.43919959725E-007 -0.43920397700E-012  0.00000000000E+000  0.00000000000E+000  0.23568671346E-020 -0.23141548273E-020
                    0.83584331342E-001  0.00000000000E+000 -0.97500000000E+002  0.38808868876E+002  0.00000000000E+000  0.00000000000E+000 -0.29729416345E-007 -0.29729712947E-012  0.00000000000E+000  0.00000000000E+000  0.24083974833E-020 -0.24227681818E-020
                    0.83584331342E-001  0.00000000000E+000 -0.10000000000E+003  0.25787010080E+002  0.00000000000E+000  0.00000000000E+000 -0.93622694671E-007 -0.93623628691E-012  0.00000000000E+000  0.00000000000E+000  0.00000000000E+000 -0.23388265289E-022
                    0.83584331342E-001  0.00000000000E+000 -0.10200000000E+003  0.89540989786E-001  0.00000000000E+000  0.00000000000E+000  0.30500349617E-007  0.30500653810E-012  0.00000000000E+000  0.00000000000E+000  0.45308616765E-020 -0.45298650383E-020
                    0.83584331342E-001  0.00000000000E+000 -0.10500000000E+003 -0.21081204087E-003  0.00000000000E+000  0.00000000000E+000 -0.38490623519E-007 -0.38491007767E-012  0.00000000000E+000  0.00000000000E+000  0.11255032499E-019 -0.11228113901E-019
                    0.83584331342E-001  0.00000000000E+000 -0.11100000000E+003 -0.84090083375E-004  0.00000000000E+000  0.00000000000E+000 -0.17584211249E-008 -0.17584386672E-013  0.00000000000E+000  0.00000000000E+000 -0.24845455786E-019  0.24933770137E-019
                    0.83584331342E-001  0.00000000000E+000 -0.12300000000E+003 -0.14726225764E-005  0.00000000000E+000  0.00000000000E+000 -0.23294377856E-010 -0.23294609504E-015  0.00000000000E+000  0.00000000000E+000  0.26477564311E-019 -0.26601525611E-019
                    0.83584331342E-001  0.00000000000E+000 -0.14700000000E+003  0.58357120278E-006  0.00000000000E+000  0.00000000000E+000  0.82047809760E-011  0.82048623613E-016  0.00000000000E+000  0.00000000000E+000  0.31414287974E-018 -0.31425021922E-018
                    0.83584331342E-001  0.00000000000E+000 -0.19500000000E+003 -0.77860787075E-002  0.00000000000E+000  0.00000000000E+000 -0.92777337351E-007 -0.92778262863E-012  0.00000000000E+000  0.00000000000E+000 -0.57026632244E-020  0.56500435662E-020
                    0.93414398785E-001  0.00000000000E+000 -0.25000000000E+000  0.18880609949E-003  0.38171979814E-012  0.67666389998E-010  0.00000000000E+000  0.00000000000E+000  0.35838656898E-012 -0.35838656898E-012  0.00000000000E+000 -0.00000000000E+000
                    0.93414398785E-001  0.00000000000E+000 -0.75000000000E+000  0.27632946054E-001  0.19815496137E-011  0.32756872428E-009  0.14318138302E-012  0.23098618369E-017  0.56026803735E-010 -0.56026803735E-010  0.92235861649E-032 -0.92236402485E-032
                    0.93414398785E-001  0.00000000000E+000 -0.15000000000E+001  0.64870488363E+001  0.95810766117E-010  0.16202049711E-007  0.00000000000E+000  0.00000000000E+000  0.16315964573E-007 -0.16315964573E-007  0.00000000000E+000 -0.00000000000E+000
                    0.93414398785E-001  0.00000000000E+000 -0.27500000000E+001  0.98164418012E+001  0.16912673280E-009  0.24956741865E-007  0.00000000000E+000  0.00000000000E+000  0.25675946692E-007 -0.25675946692E-007  0.00000000000E+000 -0.00000000000E+000
                    0.93414398785E-001  0.00000000000E+000 -0.47500000000E+001  0.16352089581E+002  0.36315577575E-009  0.46614636322E-007  0.00000000000E+000  0.00000000000E+000  0.47937219081E-007 -0.47937219081E-007  0.00000000000E+000 -0.00000000000E+000
                    0.93414398785E-001  0.00000000000E+000 -0.85000000000E+001  0.32687093269E+002  0.86166804046E-009  0.10160006068E-006  0.00000000000E+000  0.00000000000E+000  0.10414034526E-006 -0.10414034526E-006  0.00000000000E+000 -0.00000000000E+000
                    0.93414398785E-001  0.00000000000E+000 -0.13500000000E+002  0.43107411901E+002  0.85399642245E-009  0.10681432256E-006 -0.88822634060E-007 -0.14308264708E-011  0.11008311228E-006 -0.11008311228E-006  0.67627685086E-022 -0.67627687704E-022
                    0.93414398785E-001  0.00000000000E+000 -0.18500000000E+002  0.43116491836E+002  0.86371230918E-009  0.10730370242E-006 -0.97127101532E-007 -0.15653896743E-011  0.11057344340E-006 -0.11057344340E-006  0.88920072324E-022 -0.88920071455E-022
                    0.93414398785E-001  0.00000000000E+000 -0.23500000000E+002  0.53297377895E+002  0.92323297958E-009  0.12191222258E-006 -0.15154115592E-006 -0.24457063233E-011  0.12668871779E-006 -0.12668871779E-006  0.61705119442E-021 -0.61705120662E-021
                    0.93414398785E-001  0.00000000000E+000 -0.28500000000E+002  0.48158993126E+002  0.36513487086E-011  0.40758977889E-009 -0.38745283300E-009 -0.62426673173E-014  0.24907952351E-008 -0.24907952351E-008  0.13900406857E-015 -0.13900406990E-015
                    0.93414398785E-001  0.00000000000E+000 -0.33500000000E+002  0.68039168566E+002  0.00000000000E+000  0.00000000000E+000 -0.27159575140E-006 -0.65001019525E-011  0.00000000000E+000 -0.00000000000E+000  0.51339505603E-015 -0.51339503351E-015
                    0.93414398785E-001  0.00000000000E+000 -0.38500000000E+002  0.67944409776E+002  0.00000000000E+000  0.00000000000E+000 -0.32802654405E-006 -0.10430822240E-010  0.00000000000E+000 -0.00000000000E+000  0.54375464959E-015 -0.54375467307E-015
                    0.93414398785E-001  0.00000000000E+000 -0.42250000000E+002  0.33473097904E+002  0.00000000000E+000  0.00000000000E+000 -0.12588319972E-006 -0.47453141526E-011  0.00000000000E+000 -0.00000000000E+000  0.28742188526E-015 -0.28742187367E-015
                    0.93414398785E-001  0.00000000000E+000 -0.44250000000E+002  0.20061710752E+002  0.00000000000E+000  0.00000000000E+000 -0.63926529222E-007 -0.26108402868E-011  0.00000000000E+000 -0.00000000000E+000  0.17967125056E-015 -0.17967124991E-015
                    0.93414398785E-001  0.00000000000E+000 -0.45500000000E+002  0.13369717135E+002  0.00000000000E+000  0.00000000000E+000 -0.40517604649E-007 -0.17344477601E-011  0.00000000000E+000 -0.00000000000E+000  0.12236576224E-015 -0.12236575656E-015
                    0.93414398785E-001  0.00000000000E+000 -0.46500000000E+002  0.13372391530E+002  0.00000000000E+000  0.00000000000E+000 -0.41900426873E-007 -0.18595668845E-011  0.00000000000E+000 -0.00000000000E+000  0.12363820060E-015 -0.12363820182E-015
                    0.93414398785E-001  0.00000000000E+000 -0.47500000000E+002  0.13361276054E+002  0.00000000000E+000  0.00000000000E+000 -0.41211714634E-007 -0.18938466322E-011  0.00000000000E+000 -0.00000000000E+000  0.12455405168E-015 -0.12455405052E-015
                    0.93414398785E-001  0.00000000000E+000 -0.48500000000E+002  0.13366927249E+002  0.00000000000E+000  0.00000000000E+000 -0.40343193351E-007 -0.19174165970E-011  0.00000000000E+000 -0.00000000000E+000  0.12550400430E-015 -0.12550399950E-015
                    0.93414398785E-001  0.00000000000E+000 -0.49500000000E+002  0.13369094116E+002  0.00000000000E+000  0.00000000000E+000 -0.38761407385E-007 -0.19032317211E-011  0.00000000000E+000 -0.00000000000E+000  0.12638678159E-015 -0.12638678374E-015
                    0.93414398785E-001  0.00000000000E+000 -0.50500000000E+002  0.13357918067E+002  0.00000000000E+000  0.00000000000E+000 -0.29247288577E-007 -0.14820690841E-011  0.00000000000E+000 -0.00000000000E+000  0.12612681645E-015 -0.12612682632E-015
                    0.93414398785E-001  0.00000000000E+000 -0.51500000000E+002  0.13309534940E+002  0.00000000000E+000  0.00000000000E+000  0.20191674446E-007  0.80054222027E-012  0.00000000000E+000  0.00000000000E+000  0.21651140000E-013 -0.21651140007E-013
                    0.93414398785E-001  0.00000000000E+000 -0.52500000000E+002  0.13312827887E+002  0.00000000000E+000  0.00000000000E+000 -0.14322925868E-007 -0.40092632010E-012  0.00000000000E+000  0.00000000000E+000  0.30095275711E-013 -0.30095275710E-013
                    0.93414398785E-001  0.00000000000E+000 -0.53500000000E+002  0.13311823714E+002  0.00000000000E+000  0.00000000000E+000 -0.17963174678E-007 -0.33971091056E-012  0.00000000000E+000  0.00000000000E+000  0.25740446816E-013 -0.25740446821E-013
                    0.93414398785E-001  0.00000000000E+000 -0.54500000000E+002  0.13310531607E+002  0.00000000000E+000  0.00000000000E+000 -0.18801534917E-007 -0.25727406845E-012  0.00000000000E+000  0.00000000000E+000  0.15829060289E-013 -0.15829060287E-013
                    0.93414398785E-001  0.00000000000E+000 -0.55500000000E+002  0.13304275887E+002  0.00000000000E+000  0.00000000000E+000 -0.19013462373E-007 -0.21474527382E-012  0.00000000000E+000  0.00000000000E+000  0.75207287901E-014 -0.75207287902E-014
                    0.93414398785E-001  0.00000000000E+000 -0.56500000000E+002  0.13305575836E+002  0.00000000000E+000  0.00000000000E+000 -0.19052628348E-007 -0.19801595383E-012  0.00000000000E+000  0.00000000000E+000  0.28970149711E-014 -0.28970149722E-014
                    0.93414398785E-001  0.00000000000E+000 -0.57750000000E+002  0.19967385514E+002  0.00000000000E+000  0.00000000000E+000 -0.28770726181E-007 -0.28991220896E-012  0.00000000000E+000  0.00000000000E+000  0.10416365867E-014 -0.10416365837E-014
                    0.93414398785E-001  0.00000000000E+000 -0.59750000000E+002  0.33275363246E+002  0.00000000000E+000  0.00000000000E+000 -0.48780676307E-007 -0.48822674708E-012  0.00000000000E+000  0.00000000000E+000  0.23109778861E-015 -0.23109780561E-015
                    0.93414398785E-001  0.00000000000E+000 -0.63500000000E+002  0.65884484621E+002  0.00000000000E+000  0.00000000000E+000 -0.97695444951E-007 -0.97700768342E-012  0.00000000000E+000  0.00000000000E+000  0.28301403481E-016 -0.28301453457E-016
                    0.93414398785E-001  0.00000000000E+000 -0.68500000000E+002  0.65904027613E+002  0.00000000000E+000  0.00000000000E+000 -0.97609634283E-007 -0.97610813305E-012  0.00000000000E+000  0.00000000000E+000  0.15299901877E-017 -0.15300084473E-017
                    0.93414398785E-001  0.00000000000E+000 -0.76000000000E+002  0.13109384357E+003  0.00000000000E+000  0.00000000000E+000 -0.19882353480E-006 -0.19882552592E-011  0.00000000000E+000  0.00000000000E+000  0.64789638371E-019 -0.64767824404E-019
                    0.93414398785E-001  0.00000000000E+000 -0.86000000000E+002  0.13095945627E+003  0.00000000000E+000  0.00000000000E+000 -0.19246622423E-006 -0.19246814239E-011  0.00000000000E+000  0.00000000000E+000 -0.13804060714E-019  0.13801085282E-019