        VARIABLES=                 X                 Y                 Z              HEAT      FLOW_WATER_G        FLOW_AIR_G      FLOW_WATER_L        FLOW_AIR_L     FDIFF_WATER_G       FDIFF_AIR_G     FDIFF_WATER_L       FDIFF_AIR_L
 ZONE T=" 0.3153570E+08 SEC"  I =     2419 
                    0.74998205398E-001  0.00000000000E+000 -0.25000000000E+000 -0.20775962793E-002 -0.38526119721E-012 -0.68310010183E-010 -0.22582060261E-012 -0.36458148477E-017 -0.10573440477E-010  0.10573440477E-010  0.00000000000E+000 -0.00000000000E+000
                    0.74998205398E-001  0.00000000000E+000 -0.75000000000E+000  0.26747739900E-002 -0.72707860982E-013 -0.12037069620E-010  0.98517493135E-012  0.15893487091E-016  0.61312833855E-010 -0.61312833855E-010  0.00000000000E+000 -0.00000000000E+000
                    0.37597140865E-001  0.00000000000E+000 -0.15000000000E+001  0.59547732037E+001  0.00000000000E+000  0.00000000000E+000  0.00000000000E+000  0.00000000000E+000 -0.84920345357E-012  0.84920345357E-012 -0.00000000000E+000  0.00000000000E+000
                    0.37597140865E-001  0.00000000000E+000 -0.27500000000E+001  0.90100338388E+001  0.00000000000E+000  0.00000000000E+000  0.00000000000E+000  0.00000000000E+000 -0.12918611081E-011  0.12918611081E-011 -0.19571702778E-024  0.19571702762E-024
                    0.37597140865E-001  0.00000000000E+000 -0.47500000000E+001  0.15021320520E+002  0.00000000000E+000  0.00000000000E+000  0.00000000000E+000  0.00000000000E+000 -0.20616479330E-011  0.20616479330E-011 -0.23961138295E-023  0.23961138304E-023
                    0.37597140865E-001  0.00000000000E+000 -0.85000000000E+001  0.29981736619E+002  0.00000000000E+000  0.00000000000E+000  0.00000000000E+000  0.00000000000E+000 -0.40165628393E-011  0.40165628393E-011 -0.44076410302E-023  0.44076410260E-023
                    0.37597140865E-001  0.00000000000E+000 -0.13500000000E+002  0.39339431092E+002  0.00000000000E+000  0.00000000000E+000  0.00000000000E+000  0.00000000000E+000 -0.59678302658E-011  0.59678302658E-011 -0.16467376118E-019  0.16467376130E-019
                    0.37597140865E-001  0.00000000000E+000 -0.18500000000E+002  0.39304903156E+002  0.00000000000E+000  0.00000000000E+000  0.00000000000E+000  0.00000000000E+000 -0.59282249769E-011  0.59282249769E-011 -0.39412293099E-019  0.39412293050E-019
                    0.37597140865E-001  0.00000000000E+000 -0.23500000000E+002  0.40208358636E+002  0.00000000000E+000  0.00000000000E+000  0.00000000000E+000  0.00000000000E+000 -0.61633367578E-011  0.61633367578E-011 -0.10339560277E-017  0.10339560284E-017
                    0.37597140865E-001  0.00000000000E+000 -0.28500000000E+002  0.40152906756E+002  0.00000000000E+000  0.00000000000E+000  0.00000000000E+000  0.00000000000E+000 -0.59103785044E-011  0.59103785044E-011 -0.22437113048E-017  0.22437113048E-017
                    0.37597140865E-001  0.00000000000E+000 -0.33500000000E+002  0.54761670192E+002  0.00000000000E+000  0.00000000000E+000  0.00000000000E+000  0.00000000000E+000 -0.68018488369E-011  0.68018488369E-011 -0.11205823845E-016  0.11205823854E-016
                    0.37597140865E-001  0.00000000000E+000 -0.38500000000E+002  0.50317680398E+002  0.00000000000E+000  0.00000000000E+000  0.00000000000E+000  0.00000000000E+000 -0.00000000000E+000  0.00000000000E+000 -0.60832607193E-015  0.60832607194E-015
                    0.37597140865E-001  0.00000000000E+000 -0.42250000000E+002  0.29703106268E+002  0.00000000000E+000  0.00000000000E+000  0.00000000000E+000  0.00000000000E+000  0.00000000000E+000 -0.00000000000E+000  0.10928677520E-015 -0.10928677520E-015
                    0.37597140865E-001  0.00000000000E+000 -0.44250000000E+002  0.17808100368E+002  0.00000000000E+000  0.00000000000E+000  0.00000000000E+000  0.00000000000E+000  0.00000000000E+000 -0.00000000000E+000  0.26101380817E-017 -0.26101380819E-017
                    0.37597140865E-001  0.00000000000E+000 -0.45500000000E+002  0.11857713416E+002  0.00000000000E+000  0.00000000000E+000  0.00000000000E+000  0.00000000000E+000 -0.00000000000E+000  0.00000000000E+000 -0.23467875582E-016  0.23467875582E-016
                    0.37597140865E-001  0.00000000000E+000 -0.46500000000E+002  0.11852237644E+002  0.00000000000E+000  0.00000000000E+000  0.00000000000E+000  0.00000000000E+000 -0.00000000000E+000  0.00000000000E+000 -0.41253405144E-016  0.41253405145E-016
                    0.37597140865E-001  0.00000000000E+000 -0.47500000000E+002  0.11862590824E+002  0.00000000000E+000  0.00000000000E+000  0.00000000000E+000  0.00000000000E+000 -0.00000000000E+000  0.00000000000E+000 -0.57590269864E-016  0.57590269864E-016
                    0.37597140865E-001  0.00000000000E+000 -0.48500000000E+002  0.11861526323E+002  0.00000000000E+000  0.00000000000E+000  0.00000000000E+000  0.00000000000E+000 -0.00000000000E+000  0.00000000000E+000 -0.73978730711E-016  0.73978730711E-016
                    0.37597140865E-001  0.00000000000E+000 -0.49500000000E+002  0.11858943647E+002  0.00000000000E+000  0.00000000000E+000  0.00000000000E+000  0.00000000000E+000 -0.00000000000E+000  0.00000000000E+000 -0.89981907714E-016  0.89981907712E-016
                    0.37597140865E-001  0.00000000000E+000 -0.50500000000E+002  0.11834294979E+002  0.00000000000E+000  0.00000000000E+000  0.00000000000E+000  0.00000000000E+000 -0.00000000000E+000  0.00000000000E+000 -0.11016578314E-015  0.11016578314E-015
                    0.37597140865E-001  0.00000000000E+000 -0.51500000000E+002  0.11754717664E+002  0.00000000000E+000  0.00000000000E+000  0.00000000000E+000  0.00000000000E+000 -0.00000000000E+000 -0.00000000000E+000 -0.67421088535E-014  0.67421088534E-014
                    0.37597140865E-001  0.00000000000E+000 -0.52500000000E+002  0.11754184243E+002  0.00000000000E+000  0.00000000000E+000  0.00000000000E+000  0.00000000000E+000 -0.00000000000E+000 -0.00000000000E+000 -0.94461033904E-014  0.94461033903E-014
                    0.37597140865E-001  0.00000000000E+000 -0.53500000000E+002  0.11753311022E+002  0.00000000000E+000  0.00000000000E+000  0.00000000000E+000  0.00000000000E+000 -0.00000000000E+000 -0.00000000000E+000 -0.10467021700E-013  0.10467021700E-013
                    0.37597140865E-001  0.00000000000E+000 -0.54500000000E+002  0.11758015124E+002  0.00000000000E+000  0.00000000000E+000  0.00000000000E+000  0.00000000000E+000 -0.00000000000E+000 -0.00000000000E+000 -0.11007639190E-013  0.11007639190E-013
                    0.37597140865E-001  0.00000000000E+000 -0.55500000000E+002  0.11751038471E+002  0.00000000000E+000  0.00000000000E+000  0.00000000000E+000  0.00000000000E+000 -0.00000000000E+000 -0.00000000000E+000 -0.11177091547E-013  0.11177091547E-013
                    0.37597140865E-001  0.00000000000E+000 -0.56500000000E+002  0.11754257573E+002  0.00000000000E+000  0.00000000000E+000  0.00000000000E+000  0.00000000000E+000 -0.00000000000E+000 -0.00000000000E+000 -0.10739830034E-013  0.10739830034E-013
                    0.37597140865E-001  0.00000000000E+000 -0.57750000000E+002  0.17634698475E+002  0.00000000000E+000  0.00000000000E+000  0.00000000000E+000  0.00000000000E+000  0.00000000000E+000  0.00000000000E+000 -0.13887011420E-013  0.13887011420E-013
                    0.37597140865E-001  0.00000000000E+000 -0.59750000000E+002  0.29401378414E+002  0.00000000000E+000  0.00000000000E+000  0.00000000000E+000  0.00000000000E+000  0.00000000000E+000  0.00000000000E+000 -0.15195339452E-013  0.15195339452E-013
                    0.37597140865E-001  0.00000000000E+000 -0.63500000000E+002  0.58051163961E+002  0.00000000000E+000  0.00000000000E+000  0.00000000000E+000  0.00000000000E+000  0.00000000000E+000  0.00000000000E+000 -0.11123424474E-013  0.11123424473E-013
                    0.37597140865E-001  0.00000000000E+000 -0.68500000000E+002  0.58084272168E+002  0.00000000000E+000  0.00000000000E+000  0.00000000000E+000  0.00000000000E+000  0.00000000000E+000  0.00000000000E+000 -0.31033652542E-014  0.31033652542E-014
                    0.37597140865E-001  0.00000000000E+000 -0.76000000000E+002  0.11540958693E+003  0.00000000000E+000  0.00000000000E+000  0.00000000000E+000  0.00000000000E+000  0.00000000000E+000  0.00000000000E+000 -0.83547603016E-015  0.83547602986E-015
                    0.37597140865E-001  0.00000000000E+000 -0.86000000000E+002  0.11510255970E+003  0.00000000000E+000  0.00000000000E+000  0.00000000000E+000  0.00000000000E+000  0.00000000000E+000  0.00000000000E+000 -0.93201106237E-016  0.93201106466E-016
                    0.37597140865E-001  0.00000000000E+000 -0.93500000000E+002  0.61003898267E+002  0.00000000000E+000  0.00000000000E+000  0.00000000000E+000  0.00000000000E+000  0.00000000000E+000  0.00000000000E+000 -0.82787335873E-017  0.82787337114E-017
                    0.37597140865E-001  0.00000000000E+000 -0.97500000000E+002  0.36593288820E+002  0.00000000000E+000  0.00000000000E+000  0.00000000000E+000  0.00000000000E+000  0.00000000000E+000  0.00000000000E+000 -0.12065305008E-017  0.12065305110E-017
                    0.37597140865E-001  0.00000000000E+000 -0.10000000000E+003  0.24313025559E+002  0.00000000000E+000  0.00000000000E+000  0.00000000000E+000  0.00000000000E+000  0.00000000000E+000  0.00000000000E+000 -0.21111039117E-018  0.21111042247E-018
                    0.74998205398E-001  0.00000000000E+000 -0.10200000000E+003 -0.53405063985E-001  0.00000000000E+000  0.00000000000E+000 -0.17549588305E-005 -0.17549792806E-010  0.00000000000E+000  0.00000000000E+000 -0.60764358430E-018  0.60764197935E-018
                    0.74998205398E-001  0.00000000000E+000 -0.10500000000E+003 -0.63274745978E-003  0.00000000000E+000  0.00000000000E+000 -0.34054006714E-007 -0.34054355667E-012  0.00000000000E+000  0.00000000000E+000 -0.58400024161E-018  0.58400723059E-018
                    0.74998205398E-001  0.00000000000E+000 -0.11100000000E+003 -0.69253163118E-004  0.00000000000E+000  0.00000000000E+000 -0.13540897455E-008 -0.13541032863E-013  0.00000000000E+000  0.00000000000E+000 -0.17158040464E-018  0.17158449549E-018
                    0.74998205398E-001  0.00000000000E+000 -0.12300000000E+003 -0.12150031633E-005  0.00000000000E+000  0.00000000000E+000 -0.15994914228E-010 -0.15995073685E-015  0.00000000000E+000  0.00000000000E+000  0.11509402537E-018 -0.11506927541E-018
                    0.74998205398E-001  0.00000000000E+000 -0.14700000000E+003  0.10790686180E-005  0.00000000000E+000  0.00000000000E+000 -0.24304676980E-011 -0.24304919266E-016  0.00000000000E+000  0.00000000000E+000  0.75840525365E-019 -0.75850946612E-019
                    0.74998205398E-001  0.00000000000E+000 -0.19500000000E+003  0.15524076251E+000  0.00000000000E+000  0.00000000000E+000  0.18498245033E-005  0.18498429537E-010  0.00000000000E+000  0.00000000000E+000  0.10788132667E-019 -0.10836317840E-019
                    0.83584331342E-001  0.00000000000E+000 -0.25000000000E+000 -0.12679061681E-002 -0.20720785416E-012 -0.36741942377E-010  0.00000000000E+000  0.00000000000E+000 -0.25630086471E-011  0.25630086471E-011 -0.00000000000E+000  0.00000000000E+000
                    0.83584331342E-001  0.00000000000E+000 -0.75000000000E+000  0.14741052240E-001  0.58734815936E-012  0.97202694659E-010 -0.67659026078E-013 -0.10915197122E-017  0.29878520966E-010 -0.29878520966E-010  0.32085397072E-032 -0.32085630154E-032
                    0.83584331342E-001  0.00000000000E+000 -0.15000000000E+001  0.62711695925E+001  0.92068869438E-010  0.15782539156E-007  0.00000000000E+000  0.00000000000E+000  0.15868391222E-007 -0.15868391222E-007  0.00000000000E+000 -0.00000000000E+000
                    0.83584331342E-001  0.00000000000E+000 -0.27500000000E+001  0.94934849131E+001  0.16271818872E-009  0.24340095005E-007 -0.29331877376E-007 -0.47287261588E-012  0.24664879208E-007 -0.24664879208E-007  0.00000000000E+000 -0.00000000000E+000
                    0.83584331342E-001  0.00000000000E+000 -0.47500000000E+001  0.15827715051E+002  0.34845322638E-009  0.45343602759E-007 -0.58863578140E-007 -0.94769985705E-012  0.45924983381E-007 -0.45924983381E-007  0.00000000000E+000 -0.00000000000E+000
                    0.83584331342E-001  0.00000000000E+000 -0.85000000000E+001  0.31594712855E+002  0.82092900774E-009  0.98125666035E-007 -0.12644299234E-006 -0.20344559592E-011  0.99233692590E-007 -0.99233692590E-007  0.00000000000E+000 -0.00000000000E+000
                    0.83584331342E-001  0.00000000000E+000 -0.13500000000E+002  0.41537821215E+002  0.80464715613E-009  0.10229298189E-006 -0.12368464984E-006 -0.19928560877E-011  0.10382776002E-006 -0.10382776002E-006  0.14902534921E-021 -0.14902535317E-021
                    0.83584331342E-001  0.00000000000E+000 -0.18500000000E+002  0.41499773160E+002  0.80715787348E-009  0.10171711732E-006 -0.13279375479E-006 -0.21406706812E-011  0.10333244535E-006 -0.10333244535E-006  0.42626058238E-021 -0.42626056226E-021
                    0.83584331342E-001  0.00000000000E+000 -0.23500000000E+002  0.42626112779E+002  0.77050433541E-009  0.96307120731E-007 -0.11271284603E-006 -0.18178591300E-011  0.98045000985E-007 -0.98045000985E-007  0.13373066633E-019 -0.13373066504E-019
                    0.83584331342E-001  0.00000000000E+000 -0.28500000000E+002  0.42567508793E+002  0.74786089677E-009  0.92517607448E-007 -0.10537632589E-006 -0.17003257300E-011  0.94410865574E-007 -0.94410865574E-007  0.33844732014E-019 -0.33844730948E-019
                    0.83584331342E-001  0.00000000000E+000 -0.33500000000E+002  0.58143632555E+002  0.43547884317E-009  0.55585147732E-007  0.17953503178E-007  0.28995292549E-012  0.57656877197E-007 -0.57656877197E-007  0.65399346263E-017 -0.65399348435E-017
                    0.83584331342E-001  0.00000000000E+000 -0.38500000000E+002  0.53774759816E+002  0.00000000000E+000  0.00000000000E+000 -0.12097230162E-006 -0.28545391074E-011  0.00000000000E+000 -0.00000000000E+000  0.43207781872E-015 -0.43207784817E-015
                    0.83584331342E-001  0.00000000000E+000 -0.42250000000E+002  0.31805925588E+002  0.00000000000E+000  0.00000000000E+000 -0.65738372514E-007 -0.19402230737E-011  0.00000000000E+000 -0.00000000000E+000  0.14538009088E-015 -0.14538008640E-015
                    0.83584331342E-001  0.00000000000E+000 -0.44250000000E+002  0.19073755864E+002  0.00000000000E+000  0.00000000000E+000 -0.36754414430E-007 -0.12005570940E-011  0.00000000000E+000 -0.00000000000E+000  0.78003588355E-016 -0.78003584925E-016
                    0.83584331342E-001  0.00000000000E+000 -0.45500000000E+002  0.12700594000E+002  0.00000000000E+000  0.00000000000E+000 -0.23089979249E-007 -0.79967968196E-012  0.00000000000E+000 -0.00000000000E+000  0.48227676604E-016 -0.48227677926E-016
                    0.83584331342E-001  0.00000000000E+000 -0.46500000000E+002  0.12694626117E+002  0.00000000000E+000  0.00000000000E+000 -0.22007517566E-007 -0.79687329345E-012  0.00000000000E+000 -0.00000000000E+000  0.46615531909E-016 -0.46615530684E-016
                    0.83584331342E-001  0.00000000000E+000 -0.47500000000E+002  0.12707696406E+002  0.00000000000E+000  0.00000000000E+000 -0.20808882779E-007 -0.78626075450E-012  0.00000000000E+000 -0.00000000000E+000  0.45089064474E-016 -0.45089070703E-016
                    0.83584331342E-001  0.00000000000E+000 -0.48500000000E+002  0.12707292803E+002  0.00000000000E+000  0.00000000000E+000 -0.17775927687E-007 -0.69967181517E-012  0.00000000000E+000 -0.00000000000E+000  0.43564010304E-016 -0.43564004531E-016
                    0.83584331342E-001  0.00000000000E+000 -0.49500000000E+002  0.12705989442E+002  0.00000000000E+000  0.00000000000E+000  0.61320293256E-008  0.25102002915E-012  0.00000000000E+000 -0.00000000000E+000  0.41942263701E-016 -0.41942259147E-016
                    0.83584331342E-001  0.00000000000E+000 -0.50500000000E+002  0.12682345879E+002  0.00000000000E+000  0.00000000000E+000 -0.93821390230E-008 -0.39878610063E-012  0.00000000000E+000 -0.00000000000E+000  0.24503309953E-016 -0.24503301431E-016
                    0.83584331342E-001  0.00000000000E+000 -0.51500000000E+002  0.12619832870E+002  0.00000000000E+000  0.00000000000E+000 -0.90289586929E-008 -0.37055929219E-012  0.00000000000E+000  0.00000000000E+000 -0.10428814259E-013  0.10428814269E-013
                    0.83584331342E-001  0.00000000000E+000 -0.52500000000E+002  0.12619189765E+002  0.00000000000E+000  0.00000000000E+000 -0.88609789528E-008 -0.36975144574E-012  0.00000000000E+000  0.00000000000E+000 -0.76815509132E-014  0.76815509083E-014
                    0.83584331342E-001  0.00000000000E+000 -0.53500000000E+002  0.12618131535E+002  0.00000000000E+000  0.00000000000E+000 -0.88620218835E-008 -0.37931693514E-012  0.00000000000E+000  0.00000000000E+000 -0.76532958050E-014  0.76532957988E-014
                    0.83584331342E-001  0.00000000000E+000 -0.54500000000E+002  0.12623871302E+002  0.00000000000E+000  0.00000000000E+000 -0.89049772987E-008 -0.38822548267E-012  0.00000000000E+000  0.00000000000E+000 -0.68725734392E-014  0.68725734466E-014
                    0.83584331342E-001  0.00000000000E+000 -0.55500000000E+002  0.12615336926E+002  0.00000000000E+000  0.00000000000E+000 -0.88964477219E-008 -0.38775094549E-012  0.00000000000E+000  0.00000000000E+000 -0.50410821986E-014  0.50410821913E-014
                    0.83584331342E-001  0.00000000000E+000 -0.56500000000E+002  0.12619263027E+002  0.00000000000E+000  0.00000000000E+000 -0.88881194053E-008 -0.37348054312E-012  0.00000000000E+000  0.00000000000E+000 -0.87564333727E-015  0.87564333582E-015
                    0.83584331342E-001  0.00000000000E+000 -0.57750000000E+002  0.18932710950E+002  0.00000000000E+000  0.00000000000E+000 -0.13381828427E-007 -0.49951279215E-012  0.00000000000E+000  0.00000000000E+000  0.43864243658E-014 -0.43864243576E-014
                    0.83584331342E-001  0.00000000000E+000 -0.59750000000E+002  0.31566494831E+002  0.00000000000E+000  0.00000000000E+000 -0.22760549047E-007 -0.62754693924E-012  0.00000000000E+000  0.00000000000E+000  0.87203444526E-014 -0.87203444523E-014
                    0.83584331342E-001  0.00000000000E+000 -0.63500000000E+002  0.62380028520E+002  0.00000000000E+000  0.00000000000E+000 -0.45726203828E-007 -0.74373030294E-012  0.00000000000E+000  0.00000000000E+000  0.56335400630E-014 -0.56335400281E-014
                    0.83584331342E-001  0.00000000000E+000 -0.68500000000E+002  0.62420321078E+002  0.00000000000E+000  0.00000000000E+000 -0.45718258660E-007 -0.53630375078E-012  0.00000000000E+000  0.00000000000E+000  0.26191329146E-014 -0.26191329104E-014
                    0.83584331342E-001  0.00000000000E+000 -0.76000000000E+002  0.12409619121E+003  0.00000000000E+000  0.00000000000E+000 -0.93204661553E-007 -0.95345167821E-012  0.00000000000E+000  0.00000000000E+000  0.74122758573E-015 -0.74122758275E-015
                    0.83584331342E-001  0.00000000000E+000 -0.86000000000E+002  0.12381982248E+003  0.00000000000E+000  0.00000000000E+000 -0.90259173669E-007 -0.90489415767E-012  0.00000000000E+000  0.00000000000E+000  0.10917805910E-015 -0.10917807793E-015
                    0.83584331342E-001  0.00000000000E+000 -0.93500000000E+002  0.65556175779E+002  0.00000000000E+000  0.00000000000E+000 -0.43798292051E-007 -0.43818438094E-012  0.00000000000E+000  0.00000000000E+000  0.14254065472E-016 -0.14254062227E-016
                    0.83584331342E-001  0.00000000000E+000 -0.97500000000E+002  0.39321233412E+002  0.00000000000E+000  0.00000000000E+000 -0.32378780685E-007 -0.32382637606E-012  0.00000000000E+000  0.00000000000E+000  0.28289601476E-017 -0.28289322636E-017
                    0.83584331342E-001  0.00000000000E+000 -0.10000000000E+003  0.26102980480E+002  0.00000000000E+000  0.00000000000E+000 -0.11978299049E-006 -0.11978770520E-011  0.00000000000E+000  0.00000000000E+000 -0.21491519477E-018  0.21491900372E-018
                    0.83584331342E-001  0.00000000000E+000 -0.10200000000E+003 -0.43118877052E-001  0.00000000000E+000  0.00000000000E+000 -0.18413755701E-005 -0.18413994978E-010  0.00000000000E+000  0.00000000000E+000 -0.37708953094E-017  0.37709018160E-017
                    0.83584331342E-001  0.00000000000E+000 -0.10500000000E+003 -0.77914326224E-003  0.00000000000E+000  0.00000000000E+000 -0.42145016996E-007 -0.42145476035E-012  0.00000000000E+000  0.00000000000E+000 -0.35241384780E-018  0.35239094607E-018
                    0.83584331342E-001  0.00000000000E+000 -0.11100000000E+003 -0.85998839571E-004  0.00000000000E+000  0.00000000000E+000 -0.16805133472E-008 -0.16805303113E-013  0.00000000000E+000  0.00000000000E+000 -0.88504609132E-020  0.87913598613E-020
                    0.83584331342E-001  0.00000000000E+000 -0.12300000000E+003 -0.14904157526E-005  0.00000000000E+000  0.00000000000E+000 -0.20232721535E-010 -0.20232922596E-015  0.00000000000E+000  0.00000000000E+000  0.15179391344E-018 -0.15186783285E-018
                    0.83584331342E-001  0.00000000000E+000 -0.14700000000E+003  0.18967861430E-005  0.00000000000E+000  0.00000000000E+000  0.00000000000E+000  0.00000000000E+000  0.00000000000E+000  0.00000000000E+000  0.71596404636E-018 -0.71592485019E-018
                    0.83584331342E-001  0.00000000000E+000 -0.19500000000E+003  0.19281752105E+000  0.00000000000E+000  0.00000000000E+000  0.22975832465E-005  0.22976061555E-010  0.00000000000E+000  0.00000000000E+000  0.23788160770E-018 -0.23779992510E-018
                    0.93414398785E-001  0.00000000000E+000 -0.25000000000E+000  0.25972950578E-003 -0.21910057586E-013 -0.38850864286E-011  0.00000000000E+000  0.00000000000E+000  0.51176711267E-012 -0.51176711267E-012  0.00000000000E+000 -0.00000000000E+000
                    0.93414398785E-001  0.00000000000E+000 -0.75000000000E+000  0.28406980799E-001  0.17737079553E-011  0.29351996727E-009  0.13126108979E-012  0.21175879339E-017  0.57550215627E-010 -0.57550215627E-010  0.70758759584E-032 -0.70758778655E-032
                    0.93414398785E-001  0.00000000000E+000 -0.15000000000E+001  0.65921926059E+001  0.96223520469E-010  0.16342899436E-007  0.00000000000E+000  0.00000000000E+000  0.16499142934E-007 -0.16499142934E-007  0.00000000000E+000 -0.00000000000E+000
                    0.93414398785E-001  0.00000000000E+000 -0.27500000000E+001  0.99941499159E+001  0.16931832979E-009  0.25115349550E-007  0.00000000000E+000  0.00000000000E+000  0.25860439084E-007 -0.25860439084E-007  0.00000000000E+000 -0.00000000000E+000
                    0.93414398785E-001  0.00000000000E+000 -0.47500000000E+001  0.16669175782E+002  0.36409321573E-009  0.46992848960E-007  0.00000000000E+000  0.00000000000E+000  0.48345454538E-007 -0.48345454538E-007  0.00000000000E+000 -0.00000000000E+000
                    0.93414398785E-001  0.00000000000E+000 -0.85000000000E+001  0.33291884729E+002  0.86276828910E-009  0.10229130879E-006  0.00000000000E+000  0.00000000000E+000  0.10489700673E-006 -0.10489700673E-006  0.00000000000E+000 -0.00000000000E+000
                    0.93414398785E-001  0.00000000000E+000 -0.13500000000E+002  0.43948489186E+002  0.85725732196E-009  0.10797324830E-006 -0.97868798688E-007 -0.15767331860E-011  0.11125671131E-006 -0.11125671131E-006  0.93531818983E-022 -0.93531821501E-022
                    0.93414398785E-001  0.00000000000E+000 -0.18500000000E+002  0.43907552262E+002  0.85686712070E-009  0.10699185958E-006 -0.12907082603E-006 -0.20804346775E-011  0.11044698430E-006 -0.11044698430E-006  0.38860126327E-021 -0.38860126621E-021
                    0.93414398785E-001  0.00000000000E+000 -0.23500000000E+002  0.45269227700E+002  0.81794788652E-009  0.10131300224E-006 -0.12854092118E-006 -0.20729192665E-011  0.10497129097E-006 -0.10497129097E-006  0.14277660466E-019 -0.14277661028E-019
                    0.93414398785E-001  0.00000000000E+000 -0.28500000000E+002  0.45194364159E+002  0.79133096957E-009  0.97031023308E-007 -0.12021822461E-006 -0.19396088490E-011  0.10102785422E-006 -0.10102785422E-006  0.36172666818E-019 -0.36172666567E-019
                    0.93414398785E-001  0.00000000000E+000 -0.33500000000E+002  0.61877792520E+002  0.45443972264E-009  0.57458123682E-007  0.10891118795E-006  0.17587309789E-011  0.61869478505E-007 -0.61869478505E-007  0.70147051505E-017 -0.70147052369E-017
                    0.93414398785E-001  0.00000000000E+000 -0.38500000000E+002  0.57665649405E+002  0.00000000000E+000  0.00000000000E+000 -0.24736307459E-006 -0.58366471146E-011  0.00000000000E+000 -0.00000000000E+000  0.46525597816E-015 -0.46525594903E-015
                    0.93414398785E-001  0.00000000000E+000 -0.42250000000E+002  0.34160512925E+002  0.00000000000E+000  0.00000000000E+000 -0.13981883027E-006 -0.41265549605E-011  0.00000000000E+000 -0.00000000000E+000  0.27490736437E-015 -0.27490736706E-015
                    0.93414398785E-001  0.00000000000E+000 -0.44250000000E+002  0.20490699076E+002  0.00000000000E+000  0.00000000000E+000 -0.78941874377E-007 -0.25785323210E-011  0.00000000000E+000 -0.00000000000E+000  0.17362627571E-015 -0.17362627972E-015
                    0.93414398785E-001  0.00000000000E+000 -0.45500000000E+002  0.13645562529E+002  0.00000000000E+000  0.00000000000E+000 -0.49885208789E-007 -0.17276564524E-011  0.00000000000E+000 -0.00000000000E+000  0.11861612648E-015 -0.11861612544E-015
                    0.93414398785E-001  0.00000000000E+000 -0.46500000000E+002  0.13639513367E+002  0.00000000000E+000  0.00000000000E+000 -0.47585723195E-007 -0.17230129563E-011  0.00000000000E+000 -0.00000000000E+000  0.11958187014E-015 -0.11958186962E-015
                    0.93414398785E-001  0.00000000000E+000 -0.47500000000E+002  0.13653207556E+002  0.00000000000E+000  0.00000000000E+000 -0.44946183002E-007 -0.16982625834E-011  0.00000000000E+000 -0.00000000000E+000  0.12110720298E-015 -0.12110720133E-015
                    0.93414398785E-001  0.00000000000E+000 -0.48500000000E+002  0.13653557821E+002  0.00000000000E+000  0.00000000000E+000 -0.38202636793E-007 -0.15036616112E-011  0.00000000000E+000 -0.00000000000E+000  0.12235080514E-015 -0.12235081049E-015
                    0.93414398785E-001  0.00000000000E+000 -0.49500000000E+002  0.13653898206E+002  0.00000000000E+000  0.00000000000E+000  0.15577473821E-007  0.63765581473E-012  0.00000000000E+000 -0.00000000000E+000  0.12352216894E-015 -0.12352217057E-015
                    0.93414398785E-001  0.00000000000E+000 -0.50500000000E+002  0.13632087415E+002  0.00000000000E+000  0.00000000000E+000 -0.25993388884E-007 -0.11048380067E-011  0.00000000000E+000 -0.00000000000E+000  0.14630722582E-015 -0.14630722660E-015
                    0.93414398785E-001  0.00000000000E+000 -0.51500000000E+002  0.13590576077E+002  0.00000000000E+000  0.00000000000E+000 -0.19259971976E-007 -0.79220474001E-012  0.00000000000E+000  0.00000000000E+000 -0.41092357876E-014  0.41092357810E-014
                    0.93414398785E-001  0.00000000000E+000 -0.52500000000E+002  0.13589844347E+002  0.00000000000E+000  0.00000000000E+000 -0.18896125372E-007 -0.78976499127E-012  0.00000000000E+000  0.00000000000E+000 -0.39635366478E-014  0.39635366521E-014
                    0.93414398785E-001  0.00000000000E+000 -0.53500000000E+002  0.13588706749E+002  0.00000000000E+000  0.00000000000E+000 -0.18898614644E-007 -0.81017034788E-012  0.00000000000E+000  0.00000000000E+000 -0.41461996563E-014  0.41461996604E-014
                    0.93414398785E-001  0.00000000000E+000 -0.54500000000E+002  0.13595050465E+002  0.00000000000E+000  0.00000000000E+000 -0.18984670198E-007 -0.82880271386E-012  0.00000000000E+000  0.00000000000E+000 -0.31628927786E-014  0.31628927818E-014
                    0.93414398785E-001  0.00000000000E+000 -0.55500000000E+002  0.13585569242E+002  0.00000000000E+000  0.00000000000E+000 -0.18973991647E-007 -0.82781435456E-012  0.00000000000E+000  0.00000000000E+000 -0.93502596914E-015  0.93502596780E-015
                    0.93414398785E-001  0.00000000000E+000 -0.56500000000E+002  0.13589905359E+002  0.00000000000E+000  0.00000000000E+000 -0.18950242612E-007 -0.79643772740E-012  0.00000000000E+000  0.00000000000E+000  0.36277228548E-014 -0.36277228578E-014
                    0.93414398785E-001  0.00000000000E+000 -0.57750000000E+002  0.20388850496E+002  0.00000000000E+000  0.00000000000E+000 -0.28528539949E-007 -0.10641767835E-011  0.00000000000E+000  0.00000000000E+000  0.10838798303E-013 -0.10838798318E-013
                    0.93414398785E-001  0.00000000000E+000 -0.59750000000E+002  0.33994929871E+002  0.00000000000E+000  0.00000000000E+000 -0.48542670005E-007 -0.13369265846E-011  0.00000000000E+000  0.00000000000E+000  0.16195535764E-013 -0.16195535781E-013
                    0.93414398785E-001  0.00000000000E+000 -0.63500000000E+002  0.67247048779E+002  0.00000000000E+000  0.00000000000E+000 -0.97639664781E-007 -0.15871358000E-011  0.00000000000E+000  0.00000000000E+000  0.11079370461E-013 -0.11079370482E-013
                    0.93414398785E-001  0.00000000000E+000 -0.68500000000E+002  0.67291388987E+002  0.00000000000E+000  0.00000000000E+000 -0.97529764332E-007 -0.11436394420E-011  0.00000000000E+000  0.00000000000E+000  0.43159870902E-014 -0.43159870952E-014
                    0.93414398785E-001  0.00000000000E+000 -0.76000000000E+002  0.13386616150E+003  0.00000000000E+000  0.00000000000E+000 -0.19901540271E-006 -0.20357305442E-011  0.00000000000E+000  0.00000000000E+000  0.12194974600E-014 -0.12194973897E-014
                    0.93414398785E-001  0.00000000000E+000 -0.86000000000E+002  0.13362533425E+003  0.00000000000E+000  0.00000000000E+000 -0.19222645725E-006 -0.19271497704E-011  0.00000000000E+000  0.00000000000E+000  0.16891804364E-015 -0.16891803302E-015