 VARIABLES       =                 X                 Y                 Z              ROCK              PRES              TEMP             SAT_G             SAT_L         X_WATER_G           X_AIR_G         X_WATER_L           X_AIR_L             REL_G             REL_L           PCAP_GL             DEN_G             DEN_L               POR
 ZONE T=" 0.3153570E+08 SEC"  I =        9 J =        0 K =       30
                    0.37500000000E-001  0.00000000000E+000 -0.15000000000E+001                   2  0.10103540797E+006  0.56513905368E+001  0.50013453099E+000  0.49986546901E+000  0.56391298920E-002  0.99436087011E+000  0.99998390570E+000  0.16094301617E-004  0.18766820615E+000  0.61050946444E-001  0.00000000000E+000  0.12579254905E+001  0.10000114976E+004  0.10000077157E-002
                    0.37500000000E-001  0.00000000000E+000 -0.27500000000E+001                   2  0.10106209979E+006  0.69921261387E+001  0.50010714022E+000  0.49989285978E+000  0.61862588034E-002  0.99381374120E+000  0.99998391562E+000  0.16084381947E-004  0.18763395218E+000  0.61064008492E-001  0.00000000000E+000  0.12518223498E+001  0.99997533850E+003  0.99998047588E-003
                    0.37500000000E-001  0.00000000000E+000 -0.47500000000E+001                   2  0.10109565451E+006  0.80579235437E+001  0.50007649971E+000  0.49992350029E+000  0.66534311141E-002  0.99334656889E+000  0.99998392237E+000  0.16077625938E-004  0.18759563835E+000  0.61078622594E-001  0.00000000000E+000  0.12471402930E+001  0.99992655908E+003  0.99998245670E-003
                    0.37500000000E-001  0.00000000000E+000 -0.85000000000E+001                   2  0.10113813211E+006  0.79999836321E+001  0.50007901864E+000  0.49992098136E+000  0.66243385493E-002  0.99337566145E+000  0.99998391487E+000  0.16085134687E-004  0.18759878794E+000  0.61077421086E-001  0.00000000000E+000  0.12479433336E+001  0.99992967710E+003  0.99998221781E-003
                    0.37500000000E-001  0.00000000000E+000 -0.13500000000E+002                   2  0.10114777652E+006  0.76977443550E+001  0.50008829036E+000  0.49991170964E+000  0.64880825150E-002  0.99351191748E+000  0.99998390980E+000  0.16090197758E-004  0.18761038122E+000  0.61072998708E-001  0.00000000000E+000  0.12495081782E+001  0.99994501725E+003  0.99997186402E-003
                    0.37500000000E-001  0.00000000000E+000 -0.18500000000E+002                   2  0.10120817771E+006  0.77236729333E+001  0.50009233797E+000  0.49990766203E+000  0.64957256237E-002  0.99350427438E+000  0.99998390039E+000  0.16099608032E-004  0.18761544244E+000  0.61071068172E-001  0.00000000000E+000  0.12501331542E+001  0.99994378493E+003  0.99997186419E-003
                    0.37500000000E-001  0.00000000000E+000 -0.23500000000E+002                   2  0.10117909752E+006  0.69680666763E+001  0.50011108345E+000  0.49988891655E+000  0.61688424799E-002  0.99383115752E+000  0.99998389655E+000  0.16103453981E-004  0.18763888324E+000  0.61062127930E-001  0.00000000000E+000  0.12533923871E+001  0.99997629422E+003  0.99995373870E-003
                    0.37500000000E-001  0.00000000000E+000 -0.28500000000E+002                   2  0.10148613961E+006  0.87494695636E+001  0.50005333402E+000  0.49994666598E+000  0.69475872229E-002  0.99305241278E+000  0.99998386792E+000  0.16132084172E-004  0.18756667419E+000  0.61089673180E-001  0.00000000000E+000  0.12486645982E+001  0.99988589314E+003  0.99994433576E-003
                    0.37500000000E-001  0.00000000000E+000 -0.33500000000E+002                   2  0.13719046341E+006  0.81190442875E+001  0.50049538104E+000  0.49950461896E+000  0.49181871008E-002  0.99508181290E+000  0.99997812108E+000  0.21878918328E-004  0.18811980146E+000  0.60879048036E-001  0.00000000000E+000  0.16938221710E+001  0.99994047282E+003  0.10003779119E-002
                    0.37500000000E-001  0.00000000000E+000 -0.38500000000E+002                   2  0.17232288733E+006  0.81559800940E+001  0.50089112540E+000  0.49910887460E+000  0.39229763964E-002  0.99607702360E+000  0.99997247423E+000  0.27525772845E-004  0.18861576793E+000  0.60690917653E-001  0.00000000000E+000  0.21285862559E+001  0.99995520684E+003  0.10007557590E-002
                    0.37500000000E-001  0.00000000000E+000 -0.42250000000E+002                   2  0.19534165370E+006  0.81623819638E+001  0.50115686955E+000  0.49884313045E+000  0.34612385962E-002  0.99653876140E+000  0.99996877421E+000  0.31225789591E-004  0.18894922368E+000  0.60564816330E-001  0.00000000000E+000  0.24135406153E+001  0.99996583928E+003  0.10009481854E-002
                    0.37500000000E-001  0.00000000000E+000 -0.44250000000E+002                   2  0.20544620552E+006  0.81732151967E+001  0.50127439048E+000  0.49872560952E+000  0.32930931973E-002  0.99670690680E+000  0.99996715011E+000  0.32849888242E-004  0.18909679451E+000  0.60509108763E-001  0.00000000000E+000  0.25385478224E+001  0.99997005806E+003  0.10010325975E-002
                    0.37500000000E-001  0.00000000000E+000 -0.45500000000E+002                   2  0.21221220679E+006  0.81782565722E+001  0.50135234134E+000  0.49864765866E+000  0.31889910493E-002  0.99681100895E+000  0.99996606259E+000  0.33937408702E-004  0.18919471298E+000  0.60472178131E-001  0.00000000000E+000  0.26222685686E+001  0.99997300553E+003  0.10010951068E-002
                    0.37500000000E-001  0.00000000000E+000 -0.46500000000E+002                   2  0.21810128206E+006  0.81810520295E+001  0.50142154561E+000  0.49857845439E+000  0.31033122237E-002  0.99689668778E+000  0.99996511600E+000  0.34883996256E-004  0.18928166823E+000  0.60439404603E-001  0.00000000000E+000  0.26951518218E+001  0.99997565978E+003  0.10011405128E-002
                    0.37500000000E-001  0.00000000000E+000 -0.47500000000E+002                   2  0.22429275733E+006  0.81828539131E+001  0.50149674709E+000  0.49850325291E+000  0.30178606745E-002  0.99698213933E+000  0.99996412080E+000  0.35879203182E-004  0.18937618444E+000  0.60403805063E-001  0.00000000000E+000  0.27717876134E+001  0.99997851386E+003  0.10012178193E-002
                    0.37500000000E-001  0.00000000000E+000 -0.48500000000E+002                   2  0.23067539383E+006  0.81848207462E+001  0.50156975763E+000  0.49843024237E+000  0.29346029921E-002  0.99706539701E+000  0.99996309487E+000  0.36905134949E-004  0.18946797235E+000  0.60369256758E-001  0.00000000000E+000  0.28507873549E+001  0.99998144978E+003  0.10013001273E-002
                    0.37500000000E-001  0.00000000000E+000 -0.49500000000E+002                   2  0.23695439745E+006  0.81877746536E+001  0.50164117813E+000  0.49835882187E+000  0.28572796667E-002  0.99714272033E+000  0.99996208560E+000  0.37914396116E-004  0.18955778546E+000  0.60335474262E-001  0.00000000000E+000  0.29284923662E+001  0.99998428063E+003  0.10013462351E-002
                    0.37500000000E-001  0.00000000000E+000 -0.50500000000E+002                   2  0.24252960466E+006  0.81950776720E+001  0.50170368607E+000  0.49829631393E+000  0.27928748461E-002  0.99720712515E+000  0.99996118952E+000  0.38810475768E-004  0.18963641041E+000  0.60305918368E-001  0.00000000000E+000  0.29974347898E+001  0.99998653055E+003  0.10014266452E-002
                    0.37500000000E-001  0.00000000000E+000 -0.51500000000E+002                   2  0.13916338038E+006  0.82070911588E+001  0.48594531092E-003  0.99951405469E+000  0.48774603374E-002  0.99512253966E+000  0.99997780499E+000  0.22195008762E-004  0.00000000000E+000  0.99392687366E+000  0.00000000000E+000  0.17176854484E+001  0.99993652147E+003  0.10002913195E-002
                    0.37500000000E-001  0.00000000000E+000 -0.52500000000E+002                   2  0.10419783375E+006  0.82101153475E+001  0.00000000000E+000  0.10000000000E+001  0.00000000000E+000  0.00000000000E+000  0.99998693510E+000  0.13064897098E-004  0.00000000000E+000  0.10000000000E+001  0.00000000000E+000  0.12848162885E+001  0.99991966229E+003  0.99985738632E-003
                    0.37500000000E-001  0.00000000000E+000 -0.53500000000E+002                   2  0.11339270102E+006  0.82113941468E+001  0.00000000000E+000  0.10000000000E+001  0.00000000000E+000  0.00000000000E+000  0.99998941987E+000  0.10580133710E-004  0.00000000000E+000  0.10000000000E+001  0.00000000000E+000  0.13986356850E+001  0.99992397919E+003  0.99985065256E-003
                    0.37500000000E-001  0.00000000000E+000 -0.54500000000E+002                   2  0.12440709950E+006  0.82123245612E+001  0.00000000000E+000  0.10000000000E+001  0.00000000000E+000  0.00000000000E+000  0.99998990948E+000  0.10090517869E-004  0.00000000000E+000  0.10000000000E+001  0.00000000000E+000  0.15349804201E+001  0.99992918399E+003  0.99986764033E-003
                    0.37500000000E-001  0.00000000000E+000 -0.55500000000E+002                   2  0.13415209742E+006  0.82131294740E+001  0.00000000000E+000  0.10000000000E+001  0.00000000000E+000  0.00000000000E+000  0.99998998791E+000  0.10012093074E-004  0.00000000000E+000  0.10000000000E+001  0.00000000000E+000  0.16556108962E+001  0.99993378983E+003  0.99987520122E-003
                    0.37500000000E-001  0.00000000000E+000 -0.56500000000E+002                   2  0.14303723271E+006  0.82140794576E+001  0.00000000000E+000  0.10000000000E+001  0.00000000000E+000  0.00000000000E+000  0.99998999858E+000  0.10001415530E-004  0.00000000000E+000  0.10000000000E+001  0.00000000000E+000  0.17655953524E+001  0.99993797698E+003  0.99984434975E-003
                    0.37500000000E-001  0.00000000000E+000 -0.57750000000E+002                   2  0.15435871486E+006  0.82151020322E+001  0.00000000000E+000  0.10000000000E+001  0.00000000000E+000  0.00000000000E+000  0.99998999989E+000  0.10000106367E-004  0.00000000000E+000  0.10000000000E+001  0.00000000000E+000  0.19057383374E+001  0.99994332269E+003  0.99984307248E-003
                    0.37500000000E-001  0.00000000000E+000 -0.59750000000E+002                   2  0.17493896109E+006  0.82170979185E+001  0.00000000000E+000  0.10000000000E+001  0.00000000000E+000  0.00000000000E+000  0.99999000000E+000  0.10000004120E-004  0.00000000000E+000  0.10000000000E+001  0.00000000000E+000  0.21604872397E+001  0.99995303194E+003  0.99985995511E-003
                    0.37500000000E-001  0.00000000000E+000 -0.63500000000E+002                   2  0.21041508321E+006  0.82294969773E+001  0.00000000000E+000  0.10000000000E+001  0.00000000000E+000  0.00000000000E+000  0.99999000000E+000  0.99999998176E-005  0.00000000000E+000  0.10000000000E+001  0.00000000000E+000  0.25995277364E+001  0.99996925942E+003  0.99983770229E-003
                    0.37500000000E-001  0.00000000000E+000 -0.68500000000E+002                   2  0.25938539421E+006  0.82426309923E+001  0.00000000000E+000  0.10000000000E+001  0.00000000000E+000  0.00000000000E+000  0.99999000000E+000  0.99999997698E-005  0.00000000000E+000  0.10000000000E+001  0.00000000000E+000  0.32055509136E+001  0.99999187763E+003  0.99984738030E-003
                    0.37500000000E-001  0.00000000000E+000 -0.76000000000E+002                   2  0.33290586123E+006  0.82542193382E+001  0.00000000000E+000  0.10000000000E+001  0.00000000000E+000  0.00000000000E+000  0.99999000000E+000  0.99999997570E-005  0.00000000000E+000  0.10000000000E+001  0.00000000000E+000  0.41154055676E+001  0.10000262877E+004  0.99984271005E-003
                    0.37500000000E-001  0.00000000000E+000 -0.86000000000E+002                   2  0.42940901371E+006  0.82692351403E+001  0.00000000000E+000  0.10000000000E+001  0.00000000000E+000  0.00000000000E+000  0.99999000000E+000  0.99999997371E-005  0.00000000000E+000  0.10000000000E+001  0.00000000000E+000  0.53095731209E+001  0.10000714494E+004  0.99981257647E-003
                    0.37500000000E-001  0.00000000000E+000 -0.93500000000E+002                   2  0.50111494525E+006  0.82686719628E+001  0.00000000000E+000  0.10000000000E+001  0.00000000000E+000  0.00000000000E+000  0.99999000000E+000  0.99999997364E-005  0.00000000000E+000  0.10000000000E+001  0.00000000000E+000  0.61970698350E+001  0.10001056761E+004  0.99980457608E-003
                    0.37500000000E-001  0.00000000000E+000 -0.97500000000E+002                   2  0.54021552111E+006  0.82545298521E+001  0.00000000000E+000  0.10000000000E+001  0.00000000000E+000  0.00000000000E+000  0.99999000000E+000  0.99999997489E-005  0.00000000000E+000  0.10000000000E+001  0.00000000000E+000  0.66813482687E+001  0.10001251411E+004  0.99979885440E-003
                    0.37500000000E-001  0.00000000000E+000 -0.10000000000E+003                   2  0.56640426091E+006  0.83695832079E+001  0.00000000000E+000  0.10000000000E+001  0.00000000000E+000  0.00000000000E+000  0.99999000000E+000  0.99999997388E-005  0.00000000000E+000  0.10000000000E+001  0.00000000000E+000  0.70025928898E+001  0.10001308549E+004  0.99981766782E-003
                    0.37500000000E-001  0.00000000000E+000 -0.50000000000E-005                   5  0.10132500000E+006  0.50100000000E+001  0.10000000000E+001  0.00000000000E+000  0.37865000000E-002  0.99621350000E+000  0.00000000000E+000  0.00000000000E+000  0.10000000000E+001  0.00000000000E+000  0.00000000000E+000  0.12658562711E+001  0.10000186787E+004  0.99000001000E+000
                    0.38420000000E+000  0.00000000000E+000 -0.25000000000E+000                   1  0.10132810522E+006  0.55080141392E+001  0.91873515172E+000  0.81264848283E-001  0.55669016724E-002  0.99443309833E+000  0.99998385720E+000  0.16142802847E-004  0.10000000000E+001  0.00000000000E+000 -0.32909455852E+005  0.12622738496E+001  0.10000137991E+004  0.30000001000E+000
                    0.28110000000E+001  0.00000000000E+000 -0.25000000000E+000                   1  0.10132810924E+006  0.56136017309E+001  0.91872399027E+000  0.81276009729E-001  0.56080079138E-002  0.99439199209E+000  0.99998385826E+000  0.16141735508E-004  0.10000000000E+001  0.00000000000E+000 -0.32898704241E+005  0.12617644649E+001  0.10000122411E+004  0.30000001000E+000
                    0.38420000000E+000  0.00000000000E+000 -0.15000000000E+001                   1  0.10134348155E+006  0.70550825668E+001  0.89957389592E+000  0.10042610408E+000  0.61958305139E-002  0.99380416949E+000  0.99998387108E+000  0.16128916229E-004  0.99893474010E+000  0.67921237939E-010 -0.20428981500E+005  0.12550184540E+001  0.99997307728E+003  0.30000004000E+000
                    0.28110000000E+001  0.00000000000E+000 -0.15000000000E+001                   1  0.10134349364E+006  0.81533360697E+001  0.89963628073E+000  0.10036371927E+000  0.66804951803E-002  0.99331950482E+000  0.99998388366E+000  0.16116338445E-004  0.99909070201E+000  0.42243156282E-010 -0.20456194807E+005  0.12497532638E+001  0.99992146607E+003  0.30000004000E+000
                    0.38420000000E+000  0.00000000000E+000 -0.23500000000E+002                   1  0.10161081521E+006  0.89674719566E+001  0.89835319621E+000  0.10164680379E+000  0.70425300801E-002  0.99295746992E+000  0.99998385057E+000  0.16149433445E-004  0.99588300796E+000  0.39211268500E-008 -0.19908370252E+005  0.12491609871E+001  0.99987160495E+003  0.30000088002E+000
                    0.28110000000E+001  0.00000000000E+000 -0.23500000000E+002                   1  0.10161081642E+006  0.10871599403E+002  0.89843904925E+000  0.10156095075E+000  0.80064235723E-002  0.99199357643E+000  0.99998387561E+000  0.16124385444E-004  0.99609763796E+000  0.33392643320E-008 -0.19944260855E+005  0.12400656864E+001  0.99971718486E+003  0.30000088002E+000
                    0.38420000000E+000  0.00000000000E+000 -0.50500000000E+002                   1  0.31686124897E+006  0.95056546402E+001  0.31025368412E-001  0.96897463159E+000  0.23351937217E-002  0.99766480628E+000  0.99994925759E+000  0.50742409756E-004  0.00000000000E+000  0.83071309386E+000 -0.90923286470E+002  0.38990265015E+001  0.99993525886E+003  0.30064744018E+000
                    0.28110000000E+001  0.00000000000E+000 -0.50500000000E+002                   1  0.31686475312E+006  0.10800578108E+002  0.32912165894E-001  0.96708783411E+000  0.25469362547E-002  0.99745306375E+000  0.99994927429E+000  0.50725706966E-004  0.00000000000E+000  0.82282776411E+000 -0.94402556627E+002  0.38807914910E+001  0.99982526948E+003  0.30064741018E+000
                    0.38420000000E+000  0.00000000000E+000 -0.10000000000E+003                   1  0.80184758540E+006  0.96821860092E+001  0.00000000000E+000  0.10000000000E+001  0.00000000000E+000  0.00000000000E+000  0.99999000000E+000  0.99999997438E-005  0.00000000000E+000  0.10000000000E+001  0.00000000000E+000  0.98690793750E+001  0.10001512380E+004  0.30066183023E+000
                    0.28110000000E+001  0.00000000000E+000 -0.10000000000E+003                   1  0.80184747620E+006  0.10862825234E+002  0.00000000000E+000  0.10000000000E+001  0.00000000000E+000  0.00000000000E+000  0.99999000000E+000  0.99999997474E-005  0.00000000000E+000  0.10000000000E+001  0.00000000000E+000  0.98275961881E+001  0.10000476521E+004  0.30066180023E+000
                    0.37500000000E-001  0.00000000000E+000 -0.10200000000E+003                   1  0.82144872663E+006  0.10819144827E+002  0.00000000000E+000  0.10000000000E+001  0.00000000000E+000  0.00000000000E+000  0.99999000000E+000  0.99999997510E-005  0.00000000000E+000  0.10000000000E+001  0.00000000000E+000  0.10069546056E+002  0.10000610538E+004  0.30066177023E+000
                    0.37500000000E-001  0.00000000000E+000 -0.10500000000E+003                   1  0.85085033688E+006  0.10932662854E+002  0.00000000000E+000  0.10000000000E+001  0.00000000000E+000  0.00000000000E+000  0.99999000000E+000  0.99999997528E-005  0.00000000000E+000  0.10000000000E+001  0.00000000000E+000  0.10425960628E+002  0.10000639615E+004  0.30066180022E+000
                    0.37500000000E-001  0.00000000000E+000 -0.11100000000E+003                   1  0.90965475946E+006  0.10983169254E+002  0.00000000000E+000  0.10000000000E+001  0.00000000000E+000  0.00000000000E+000  0.99999000000E+000  0.99999997490E-005  0.00000000000E+000  0.10000000000E+001  0.00000000000E+000  0.11144941094E+002  0.10000866881E+004  0.30066180022E+000
                    0.37500000000E-001  0.00000000000E+000 -0.12300000000E+003                   1  0.10272673894E+007  0.11128060794E+002  0.00000000000E+000  0.10000000000E+001  0.00000000000E+000  0.00000000000E+000  0.99999000000E+000  0.99999997413E-005  0.00000000000E+000  0.10000000000E+001  0.00000000000E+000  0.12580221819E+002  0.10001276107E+004  0.30066186021E+000
                    0.37500000000E-001  0.00000000000E+000 -0.14700000000E+003                   1  0.12625075630E+007  0.11369840143E+002  0.00000000000E+000  0.10000000000E+001  0.00000000000E+000  0.00000000000E+000  0.99999000000E+000  0.99999997441E-005  0.00000000000E+000  0.10000000000E+001  0.00000000000E+000  0.15449205449E+002  0.10002133472E+004  0.30066192020E+000
                    0.37500000000E-001  0.00000000000E+000 -0.19500000000E+003                   3  0.17330696785E+007  0.11850000381E+002  0.00000000000E+000  0.10000000000E+001  0.00000000000E+000  0.00000000000E+000  0.99999000000E+000  0.99999997473E-005  0.00000000000E+000  0.10000000000E+001  0.00000000000E+000  0.21173818499E+002  0.10003819852E+004  0.30066234000E+000
                    0.37500000000E-001  0.00000000000E+000 -0.25000000000E+000                   4  0.10144286096E+006  0.55008797059E+001  0.89700033920E+000  0.10299966080E+000  0.55578182632E-002  0.99444218174E+000  0.99998383868E+000  0.16161321061E-004  0.99250095323E+000  0.23699460952E-007 -0.19356692523E+005  0.12637426881E+001  0.10000139534E+004  0.30000307999E+000
                    0.37500000000E-001  0.00000000000E+000 -0.75000000000E+000                   4  0.10133737091E+006  0.62677492848E+001  0.88588722196E+000  0.11411277804E+000  0.58681968540E-002  0.99413180315E+000  0.99998386355E+000  0.16136451687E-004  0.96472893794E+000  0.24704319486E-005 -0.15643971177E+005  0.12587278298E+001  0.99999857000E+003  0.30000003999E+000
                    0.79290000000E-001  0.00000000000E+000 -0.25000000000E+000                   1  0.10132810519E+006  0.54976569479E+001  0.94747115760E+000  0.52528842397E-001  0.55628839428E-002  0.99443711606E+000  0.99998385709E+000  0.16142907229E-004  0.10000000000E+001  0.00000000000E+000 -0.11300244879E+006  0.12623238301E+001  0.10000139421E+004  0.30000001000E+000
                    0.79290000000E-001  0.00000000000E+000 -0.75000000000E+000                   1  0.10133426835E+006  0.62711273711E+001  0.89975727768E+000  0.10024272232E+000  0.58697509551E-002  0.99413024904E+000  0.99998386408E+000  0.16135917288E-004  0.99939319427E+000  0.12554070580E-010 -0.20509147927E+005  0.12586728942E+001  0.99999848004E+003  0.30000004000E+000
                    0.79290000000E-001  0.00000000000E+000 -0.15000000000E+001                   1  0.10134347682E+006  0.56830882474E+001  0.91881172169E+000  0.81188278314E-001  0.56343491719E-002  0.99436565083E+000  0.99998385650E+000  0.16143499138E-004  0.10000000000E+001  0.00000000000E+000 -0.32983372286E+005  0.12616212730E+001  0.10000111241E+004  0.30000007000E+000
                    0.79290000000E-001  0.00000000000E+000 -0.27500000000E+001                   1  0.10135874971E+006  0.70238704300E+001  0.91539294175E+000  0.84607058252E-001  0.61815900291E-002  0.99381840997E+000  0.99998386828E+000  0.16131715965E-004  0.10000000000E+001  0.00000000000E+000 -0.29932873130E+005  0.12553581560E+001  0.99997428040E+003  0.30000010000E+000
                    0.79290000000E-001  0.00000000000E+000 -0.47500000000E+001                   1  0.10138305720E+006  0.80894766085E+001  0.91512395677E+000  0.84876043233E-001  0.66488132457E-002  0.99335118675E+000  0.99998387655E+000  0.16123452501E-004  0.10000000000E+001  0.00000000000E+000 -0.29712895029E+005  0.12505489452E+001  0.99992498811E+003  0.30000019001E+000
                    0.79290000000E-001  0.00000000000E+000 -0.85000000000E+001                   1  0.10142855056E+006  0.80317339284E+001  0.91751800038E+000  0.82481999621E-001  0.66196471014E-002  0.99338035290E+000  0.99998386856E+000  0.16131444988E-004  0.10000000000E+001  0.00000000000E+000 -0.31770535830E+005  0.12513890472E+001  0.99992812461E+003  0.30000031001E+000
                    0.79290000000E-001  0.00000000000E+000 -0.13500000000E+002                   1  0.10148925737E+006  0.77358884810E+001  0.92065625188E+000  0.79343748116E-001  0.64830880761E-002  0.99351691192E+000  0.99998385535E+000  0.16144648952E-004  0.10000000000E+001  0.00000000000E+000 -0.34851161821E+005  0.12535601339E+001  0.99994332169E+003  0.30000052001E+000
                    0.79290000000E-001  0.00000000000E+000 -0.18500000000E+002                   1  0.10155001037E+006  0.77618056132E+001  0.92076541632E+000  0.79234583681E-001  0.64907071812E-002  0.99350929282E+000  0.99998384588E+000  0.16154115223E-004  0.10000000000E+001  0.00000000000E+000 -0.34967203304E+005  0.12541890481E+001  0.99994207503E+003  0.30000070002E+000
                    0.79290000000E-001  0.00000000000E+000 -0.23500000000E+002                   1  0.10161080935E+006  0.70159453128E+001  0.89312541220E+000  0.10687458780E+000  0.61628329087E-002  0.99383716709E+000  0.99998382768E+000  0.16172320665E-004  0.98281479416E+000  0.28535713179E-006 -0.17909449511E+005  0.12585298497E+001  0.99997470270E+003  0.30000088002E+000
                    0.79290000000E-001  0.00000000000E+000 -0.28500000000E+002                   1  0.10167184770E+006  0.87704917811E+001  0.26722932266E+000  0.73277067734E+000  0.69447596029E-002  0.99305524040E+000  0.99998383832E+000  0.16161677609E-004  0.16358897415E-001  0.26495283448E+000 -0.45470583408E+003  0.12508583771E+001  0.99988462844E+003  0.30000106003E+000
                    0.79290000000E-001  0.00000000000E+000 -0.33500000000E+002                   1  0.15038503226E+006  0.81498461484E+001  0.87677341404E-001  0.91232265860E+000  0.44949320092E-002  0.99550506799E+000  0.99997600051E+000  0.23999491584E-004  0.00000000000E+000  0.63307713506E+000 -0.18122004081E+003  0.18570008902E+001  0.99994507382E+003  0.30014735016E+000
                    0.79290000000E-001  0.00000000000E+000 -0.38500000000E+002                   1  0.19935140191E+006  0.81865602646E+001  0.72566275315E-001  0.92743372468E+000  0.33970682544E-002  0.99660293175E+000  0.99996812996E+000  0.31870038667E-004  0.00000000000E+000  0.67950477292E+000 -0.15885620420E+003  0.24629669760E+001  0.99996640179E+003  0.30029437018E+000
                    0.79290000000E-001  0.00000000000E+000 -0.42250000000E+002                   1  0.23606847625E+006  0.81932529278E+001  0.56179810812E-001  0.94382018919E+000  0.28690914847E-002  0.99713090852E+000  0.99996222807E+000  0.37771926908E-004  0.00000000000E+000  0.73435945321E+000 -0.13363447473E+003  0.29174656965E+001  0.99998354976E+003  0.30040461019E+000
                    0.79290000000E-001  0.00000000000E+000 -0.44250000000E+002                   1  0.25564754609E+006  0.82039085724E+001  0.45631665078E-001  0.95436833492E+000  0.26509285536E-002  0.99734907145E+000  0.99995908104E+000  0.40918964077E-004  0.00000000000E+000  0.77267155352E+000 -0.11652687041E+003  0.31597324269E+001  0.99999229263E+003  0.30046347019E+000
                    0.79290000000E-001  0.00000000000E+000 -0.45500000000E+002                   1  0.26788552029E+006  0.82088808260E+001  0.39887989887E-001  0.96011201011E+000  0.25304953565E-002  0.99746950464E+000  0.99995711395E+000  0.42886048178E-004  0.00000000000E+000  0.79472061375E+000 -0.10678617955E+003  0.33111733226E+001  0.99999785138E+003  0.30050024019E+000
                    0.79290000000E-001  0.00000000000E+000 -0.46500000000E+002                   1  0.27767982611E+006  0.82116094500E+001  0.37635707774E-001  0.96236429223E+000  0.24415612642E-002  0.99755843874E+000  0.99995553964E+000  0.44460359321E-004  0.00000000000E+000  0.80362597803E+000 -0.10286216707E+003  0.34323864614E+001  0.10000023705E+004  0.30052966019E+000
                    0.79290000000E-001  0.00000000000E+000 -0.47500000000E+002                   1  0.28747483557E+006  0.82133704245E+001  0.35790228962E-001  0.96420977104E+000  0.23585347205E-002  0.99764146528E+000  0.99995396521E+000  0.46034793184E-004  0.00000000000E+000  0.81104040183E+000 -0.99596458377E+002  0.35536185148E+001  0.10000069444E+004  0.30055910019E+000
                    0.79290000000E-001  0.00000000000E+000 -0.48500000000E+002                   1  0.29727035825E+006  0.82153104256E+001  0.34230494559E-001  0.96576950544E+000  0.22810110329E-002  0.99771898897E+000  0.99995239069E+000  0.47609305539E-004  0.00000000000E+000  0.81739343829E+000 -0.96797784285E+002  0.36748530038E+001  0.10000115083E+004  0.30058855020E+000
                    0.79290000000E-001  0.00000000000E+000 -0.49500000000E+002                   1  0.30706608883E+006  0.82182361836E+001  0.32781175459E-001  0.96721882454E+000  0.22085867389E-002  0.99779141326E+000  0.99995081616E+000  0.49183837722E-004  0.00000000000E+000  0.82337104715E+000 -0.94163003786E+002  0.37960747548E+001  0.10000160160E+004  0.30061799020E+000
                    0.79290000000E-001  0.00000000000E+000 -0.50500000000E+002                   1  0.31685001994E+006  0.82254652589E+001  0.25179388857E-001  0.97482061114E+000  0.21413531805E-002  0.99785864682E+000  0.99994924358E+000  0.50756420229E-004  0.00000000000E+000  0.85603105144E+000 -0.79693149314E+002  0.39170865268E+001  0.10000202727E+004  0.30064744020E+000
                    0.79290000000E-001  0.00000000000E+000 -0.51500000000E+002                   1  0.32656875170E+006  0.82375522337E+001  0.00000000000E+000  0.10000000000E+001  0.00000000000E+000  0.00000000000E+000  0.99997488959E+000  0.25110411465E-004  0.00000000000E+000  0.10000000000E+001  0.00000000000E+000  0.40372136425E+001  0.10000242196E+004  0.30066186018E+000
                    0.79290000000E-001  0.00000000000E+000 -0.52500000000E+002                   1  0.33636729326E+006  0.82405796881E+001  0.00000000000E+000  0.10000000000E+001  0.00000000000E+000  0.00000000000E+000  0.99998548806E+000  0.14511938142E-004  0.00000000000E+000  0.10000000000E+001  0.00000000000E+000  0.41584552992E+001  0.10000287209E+004  0.30066189018E+000
                    0.79290000000E-001  0.00000000000E+000 -0.53500000000E+002                   1  0.34616585560E+006  0.82418979982E+001  0.00000000000E+000  0.10000000000E+001  0.00000000000E+000  0.00000000000E+000  0.99998890856E+000  0.11091444134E-004  0.00000000000E+000  0.10000000000E+001  0.00000000000E+000  0.42797211891E+001  0.10000333197E+004  0.30066186018E+000
                    0.79290000000E-001  0.00000000000E+000 -0.54500000000E+002                   1  0.35596445756E+006  0.82428162109E+001  0.00000000000E+000  0.10000000000E+001  0.00000000000E+000  0.00000000000E+000  0.99998978289E+000  0.10217107226E-004  0.00000000000E+000  0.10000000000E+001  0.00000000000E+000  0.44009928292E+001  0.10000379413E+004  0.30066183019E+000
                    0.79290000000E-001  0.00000000000E+000 -0.55500000000E+002                   1  0.36576310321E+006  0.82435959487E+001  0.00000000000E+000  0.10000000000E+001  0.00000000000E+000  0.00000000000E+000  0.99998996361E+000  0.10036391021E-004  0.00000000000E+000  0.10000000000E+001  0.00000000000E+000  0.45222664917E+001  0.10000425707E+004  0.30066183019E+000
                    0.79290000000E-001  0.00000000000E+000 -0.56500000000E+002                   1  0.37556179355E+006  0.82445368655E+001  0.00000000000E+000  0.10000000000E+001  0.00000000000E+000  0.00000000000E+000  0.99998999475E+000  0.10005247728E-004  0.00000000000E+000  0.10000000000E+001  0.00000000000E+000  0.46435373199E+001  0.10000471907E+004  0.30066186019E+000