 VARIABLES       =                 X                 Y                 Z              ROCK              PRES              TEMP             SAT_G             SAT_L         X_WATER_G           X_AIR_G         X_WATER_L           X_AIR_L             REL_G             REL_L           PCAP_GL             DEN_G             DEN_L               POR
 ZONE T=" 0.3153570E+08 SEC"  I =        9 J =        0 K =       30
                    0.37500000000E-001  0.00000000000E+000 -0.15000000000E+001                   2  0.10094529863E+006  0.59257686692E+001  0.50042529022E+000  0.49957470978E+000  0.57529282649E-002  0.99424707174E+000  0.99998392300E+000  0.16077002800E-004  0.18803203669E+000  0.60912410648E-001  0.00000000000E+000  0.12554816727E+001  0.10000063902E+004  0.99992837487E-003
                    0.37500000000E-001  0.00000000000E+000 -0.27500000000E+001                   2  0.10097226182E+006  0.79052896963E+001  0.50037459993E+000  0.49962540007E+000  0.65924300180E-002  0.99340756998E+000  0.99998394042E+000  0.16059579483E-004  0.18796857880E+000  0.60936546767E-001  0.00000000000E+000  0.12463404142E+001  0.99993455146E+003  0.99992895609E-003
                    0.37500000000E-001  0.00000000000E+000 -0.47500000000E+001                   2  0.10101122211E+006  0.99513985103E+001  0.50029790758E+000  0.49970209242E+000  0.75717992690E-002  0.99242820073E+000  0.99998395954E+000  0.16040460976E-004  0.18787259248E+000  0.60973076493E-001  0.00000000000E+000  0.12370790943E+001  0.99979796997E+003  0.99992581756E-003
                    0.37500000000E-001  0.00000000000E+000 -0.85000000000E+001                   2  0.10106535743E+006  0.11217199339E+002  0.50023489643E+000  0.49976510357E+000  0.82378299084E-002  0.99176217009E+000  0.99998396815E+000  0.16031851287E-004  0.18779374986E+000  0.61003101145E-001  0.00000000000E+000  0.12317380828E+001  0.99968343688E+003  0.99991778817E-003
                    0.37500000000E-001  0.00000000000E+000 -0.13500000000E+002                   2  0.10100501256E+006  0.10283870962E+002  0.50029078230E+000  0.49970921770E+000  0.77435235482E-002  0.99225647645E+000  0.99998396496E+000  0.16035039763E-004  0.18786367605E+000  0.60976471148E-001  0.00000000000E+000  0.12354241426E+001  0.99977004935E+003  0.99995219015E-003
                    0.37500000000E-001  0.00000000000E+000 -0.18500000000E+002                   2  0.10106954557E+006  0.10423748397E+002  0.50029339024E+000  0.49970660976E+000  0.78115801343E-002  0.99218841987E+000  0.99998395647E+000  0.16043526148E-004  0.18786693954E+000  0.60975228648E-001  0.00000000000E+000  0.12355530103E+001  0.99975786824E+003  0.99996289959E-003
                    0.37500000000E-001  0.00000000000E+000 -0.23500000000E+002                   2  0.10113646566E+006  0.10556990655E+002  0.50029310974E+000  0.49970689026E+000  0.78764675894E-002  0.99212353241E+000  0.99998394753E+000  0.16052471258E-004  0.18786658853E+000  0.60975362287E-001  0.00000000000E+000  0.12357421179E+001  0.99974601230E+003  0.99996838676E-003
                    0.37500000000E-001  0.00000000000E+000 -0.28500000000E+002                   2  0.10120987559E+006  0.10722997516E+002  0.50029615764E+000  0.49970384236E+000  0.79587565135E-002  0.99204124349E+000  0.99998393801E+000  0.16061994091E-004  0.18787040262E+000  0.60973910195E-001  0.00000000000E+000  0.12358546265E+001  0.99973088936E+003  0.99988782384E-003
                    0.37500000000E-001  0.00000000000E+000 -0.33500000000E+002                   2  0.10123336275E+006  0.10257327591E+002  0.50033904129E+000  0.49966095871E+000  0.77122086878E-002  0.99228779131E+000  0.99998392790E+000  0.16072102011E-004  0.18792407102E+000  0.60953481976E-001  0.00000000000E+000  0.12383565245E+001  0.99977244344E+003  0.10000930890E-002
                    0.37500000000E-001  0.00000000000E+000 -0.38500000000E+002                   2  0.12181966247E+006  0.12139537585E+002  0.50047817877E+000  0.49952182123E+000  0.72599298536E-002  0.99274007015E+000  0.99998064547E+000  0.19354532292E-004  0.18809825937E+000  0.60887234977E-001  0.00000000000E+000  0.14807562081E+001  0.99959580685E+003  0.10004004906E-002
                    0.37500000000E-001  0.00000000000E+000 -0.42250000000E+002                   2  0.19450587063E+006  0.11553534094E+002  0.50134230084E+000  0.49865769916E+000  0.43666603150E-002  0.99563333969E+000  0.99996895305E+000  0.31046953412E-004  0.18918209894E+000  0.60476934113E-001  0.00000000000E+000  0.23732904839E+001  0.99969314281E+003  0.10008290459E-002
                    0.37500000000E-001  0.00000000000E+000 -0.44250000000E+002                   2  0.20494212301E+006  0.11566364064E+002  0.50146300352E+000  0.49853699648E+000  0.41472681371E-002  0.99585273186E+000  0.99996727569E+000  0.32724313115E-004  0.18933377090E+000  0.60419777072E-001  0.00000000000E+000  0.25008489636E+001  0.99969670556E+003  0.10009445611E-002
                    0.37500000000E-001  0.00000000000E+000 -0.45500000000E+002                   2  0.21168302486E+006  0.11585099699E+002  0.50154738520E+000  0.49845261480E+000  0.40198736689E-002  0.99598012633E+000  0.99996619241E+000  0.33807587431E-004  0.18943984336E+000  0.60379841831E-001  0.00000000000E+000  0.25831352785E+001  0.99969791375E+003  0.10010140695E-002
                    0.37500000000E-001  0.00000000000E+000 -0.46500000000E+002                   2  0.21759692244E+006  0.11598999914E+002  0.50161177871E+000  0.49838822129E+000  0.39139689720E-002  0.99608603103E+000  0.99996524200E+000  0.34757996599E-004  0.18952081203E+000  0.60349378831E-001  0.00000000000E+000  0.26553421254E+001  0.99969923505E+003  0.10010754779E-002
                    0.37500000000E-001  0.00000000000E+000 -0.47500000000E+002                   2  0.22382215729E+006  0.11614274101E+002  0.50168143446E+000  0.49831856554E+000  0.38087138671E-002  0.99619128613E+000  0.99996424157E+000  0.35758429840E-004  0.18960841935E+000  0.60316438528E-001  0.00000000000E+000  0.27313362554E+001  0.99970055527E+003  0.10011144901E-002
                    0.37500000000E-001  0.00000000000E+000 -0.48500000000E+002                   2  0.23003217954E+006  0.11631262140E+002  0.50176487794E+000  0.49823512206E+000  0.37098383976E-002  0.99629016160E+000  0.99996324361E+000  0.36756391919E-004  0.18971339770E+000  0.60276994590E-001  0.00000000000E+000  0.28071185589E+001  0.99970168448E+003  0.10012141998E-002
                    0.37500000000E-001  0.00000000000E+000 -0.49500000000E+002                   2  0.23632388965E+006  0.11652235646E+002  0.50182963999E+000  0.49817036001E+000  0.36158785980E-002  0.99638412140E+000  0.99996223257E+000  0.37767425624E-004  0.18979489585E+000  0.60246393880E-001  0.00000000000E+000  0.28838488263E+001  0.99970242728E+003  0.10012369095E-002
                    0.37500000000E-001  0.00000000000E+000 -0.50500000000E+002                   2  0.24165515515E+006  0.11696820674E+002  0.50189095694E+000  0.49810904306E+000  0.35464001600E-002  0.99645359984E+000  0.99996137627E+000  0.38623730762E-004  0.18987207673E+000  0.60217431055E-001  0.00000000000E+000  0.29485683852E+001  0.99970021127E+003  0.10012915140E-002
                    0.37500000000E-001  0.00000000000E+000 -0.51500000000E+002                   2  0.16636217413E+006  0.11718436091E+002  0.11804434226E-002  0.99881955658E+000  0.51638623462E-002  0.99483613765E+000  0.99997347933E+000  0.26520667307E-004  0.00000000000E+000  0.98756324367E+000  0.00000000000E+000  0.20277388292E+001  0.99966259457E+003  0.10003577514E-002
                    0.37500000000E-001  0.00000000000E+000 -0.52500000000E+002                   2  0.13483284245E+006  0.11731431662E+002  0.76712532259E-003  0.99923287468E+000  0.63815498826E-002  0.99361845012E+000  0.99997854764E+000  0.21452355181E-004  0.00000000000E+000  0.99121915022E+000  0.00000000000E+000  0.16421537289E+001  0.99964642178E+003  0.10000255756E-002
                    0.37500000000E-001  0.00000000000E+000 -0.53500000000E+002                   2  0.12813552231E+006  0.11743413081E+002  0.57491234196E-003  0.99942508766E+000  0.67217988418E-002  0.99327820116E+000  0.99997962437E+000  0.20375629502E-004  0.00000000000E+000  0.99304379203E+000  0.00000000000E+000  0.15601996211E+001  0.99964200482E+003  0.99997990158E-003
                    0.37500000000E-001  0.00000000000E+000 -0.54500000000E+002                   2  0.12604146712E+006  0.11754509486E+002  0.44524359106E-003  0.99955475641E+000  0.68389725122E-002  0.99316102749E+000  0.99997996114E+000  0.20038861226E-004  0.00000000000E+000  0.99434102912E+000  0.00000000000E+000  0.15345337181E+001  0.99963983996E+003  0.99985067991E-003
                    0.37500000000E-001  0.00000000000E+000 -0.55500000000E+002                   2  0.12390986607E+006  0.11766368147E+002  0.31134574489E-003  0.99968865426E+000  0.69625962544E-002  0.99303740375E+000  0.99998030395E+000  0.19696046335E-004  0.00000000000E+000  0.99576046705E+000  0.00000000000E+000  0.15084064635E+001  0.99963757453E+003  0.99974054521E-003
                    0.37500000000E-001  0.00000000000E+000 -0.56500000000E+002                   2  0.12018504871E+006  0.11777434032E+002  0.18141341910E-003  0.99981858658E+000  0.71845976625E-002  0.99281540234E+000  0.99998090286E+000  0.19097143426E-004  0.00000000000E+000  0.99725826111E+000  0.00000000000E+000  0.14628098380E+001  0.99963464480E+003  0.99960339650E-003
                    0.37500000000E-001  0.00000000000E+000 -0.57750000000E+002                   2  0.11425393125E+006  0.11791460409E+002  0.00000000000E+000  0.10000000000E+001  0.00000000000E+000  0.00000000000E+000  0.99998237907E+000  0.17620930098E-004  0.00000000000E+000  0.10000000000E+001  0.00000000000E+000  0.13902315709E+001  0.99963036171E+003  0.99943193449E-003
                    0.37500000000E-001  0.00000000000E+000 -0.59750000000E+002                   2  0.13333773625E+006  0.11813550581E+002  0.00000000000E+000  0.10000000000E+001  0.00000000000E+000  0.00000000000E+000  0.99998536801E+000  0.14631986509E-004  0.00000000000E+000  0.10000000000E+001  0.00000000000E+000  0.16233716395E+001  0.99963694192E+003  0.99942508802E-003
                    0.37500000000E-001  0.00000000000E+000 -0.63500000000E+002                   2  0.17085589561E+006  0.11871321942E+002  0.00000000000E+000  0.10000000000E+001  0.00000000000E+000  0.00000000000E+000  0.99998847109E+000  0.11528912394E-004  0.00000000000E+000  0.10000000000E+001  0.00000000000E+000  0.20815014583E+001  0.99964830101E+003  0.99944710109E-003
                    0.37500000000E-001  0.00000000000E+000 -0.68500000000E+002                   2  0.21853468070E+006  0.11920457188E+002  0.00000000000E+000  0.10000000000E+001  0.00000000000E+000  0.00000000000E+000  0.99998959077E+000  0.10409232238E-004  0.00000000000E+000  0.10000000000E+001  0.00000000000E+000  0.26636706196E+001  0.99966530896E+003  0.99940768715E-003
                    0.37500000000E-001  0.00000000000E+000 -0.76000000000E+002                   2  0.29001674484E+006  0.11991497476E+002  0.00000000000E+000  0.10000000000E+001  0.00000000000E+000  0.00000000000E+000  0.99998994830E+000  0.10051702154E-004  0.00000000000E+000  0.10000000000E+001  0.00000000000E+000  0.35361410829E+001  0.99969101430E+003  0.99939236815E-003
                    0.37500000000E-001  0.00000000000E+000 -0.86000000000E+002                   2  0.38531087272E+006  0.12058664504E+002  0.00000000000E+000  0.10000000000E+001  0.00000000000E+000  0.00000000000E+000  0.99998999443E+000  0.10005568911E-004  0.00000000000E+000  0.10000000000E+001  0.00000000000E+000  0.46990377813E+001  0.99972820657E+003  0.99937357235E-003
                    0.37500000000E-001  0.00000000000E+000 -0.93500000000E+002                   2  0.45193411521E+006  0.11937787399E+002  0.00000000000E+000  0.10000000000E+001  0.00000000000E+000  0.00000000000E+000  0.99998999903E+000  0.10000974988E-004  0.00000000000E+000  0.10000000000E+001  0.00000000000E+000  0.55150479430E+001  0.99977276860E+003  0.99930319006E-003
                    0.37500000000E-001  0.00000000000E+000 -0.97500000000E+002                   2  0.49263979156E+006  0.12171765668E+002  0.00000000000E+000  0.10000000000E+001  0.00000000000E+000  0.00000000000E+000  0.99998999976E+000  0.10000235279E-004  0.00000000000E+000  0.10000000000E+001  0.00000000000E+000  0.60073373522E+001  0.99976575909E+003  0.99931148140E-003
                    0.37500000000E-001  0.00000000000E+000 -0.10000000000E+003                   2  0.52242437652E+006  0.12735567891E+002  0.00000000000E+000  0.10000000000E+001  0.00000000000E+000  0.00000000000E+000  0.99998999993E+000  0.10000068923E-004  0.00000000000E+000  0.10000000000E+001  0.00000000000E+000  0.63581207510E+001  0.99971384551E+003  0.99937302500E-003
                    0.37500000000E-001  0.00000000000E+000 -0.50000000000E-005                   5  0.10132500000E+006  0.50100000000E+001  0.10000000000E+001  0.00000000000E+000  0.52500000000E-002  0.99475000000E+000  0.00000000000E+000  0.00000000000E+000  0.10000000000E+001  0.00000000000E+000  0.00000000000E+000  0.12647370810E+001  0.10000186787E+004  0.99000001000E+000
                    0.38420000000E+000  0.00000000000E+000 -0.25000000000E+000                   1  0.10132813244E+006  0.56257085190E+001  0.91197700664E+000  0.88022993356E-001  0.56127371124E-002  0.99438726289E+000  0.99998385838E+000  0.16141616337E-004  0.10000000000E+001  0.00000000000E+000 -0.27326830333E+005  0.12617063540E+001  0.10000120508E+004  0.30000001000E+000
                    0.28110000000E+001  0.00000000000E+000 -0.25000000000E+000                   1  0.10132813710E+006  0.57484204312E+001  0.91196312733E+000  0.88036872669E-001  0.56608843725E-002  0.99433911563E+000  0.99998385963E+000  0.16140366251E-004  0.10000000000E+001  0.00000000000E+000 -0.27317019661E+005  0.12611146102E+001  0.10000099879E+004  0.30000001000E+000
                    0.38420000000E+000  0.00000000000E+000 -0.15000000000E+001                   1  0.10134368961E+006  0.76744392245E+001  0.89970675703E+000  0.10029324297E+000  0.64651564429E-002  0.99353484356E+000  0.99998387804E+000  0.16121957844E-004  0.99926689266E+000  0.22138036415E-010 -0.20487010366E+005  0.12520495770E+001  0.99994623590E+003  0.30000004000E+000
                    0.28110000000E+001  0.00000000000E+000 -0.15000000000E+001                   1  0.10134370416E+006  0.89872307747E+001  0.89975980141E+000  0.10024019859E+000  0.70706450704E-002  0.99292935493E+000  0.99998389375E+000  0.16106251248E-004  0.99939950358E+000  0.12166531124E-010 -0.20510254837E+005  0.12457688427E+001  0.99987014309E+003  0.30000004000E+000
                    0.38420000000E+000  0.00000000000E+000 -0.23500000000E+002                   1  0.10161134957E+006  0.12864652438E+002  0.87530029544E+000  0.12469970456E+000  0.91388456242E-002  0.99086115438E+000  0.99998390492E+000  0.16095082889E-004  0.93830869197E+000  0.13258725198E-004 -0.13089331598E+005  0.12305913995E+001  0.99950182356E+003  0.30000085003E+000
                    0.28110000000E+001  0.00000000000E+000 -0.23500000000E+002                   1  0.10161136028E+006  0.15097750028E+002  0.87554240135E+000  0.12445759865E+000  0.10574360886E-001  0.98942563911E+000  0.99998394211E+000  0.16057894674E-004  0.93891227786E+000  0.12872294571E-004 -0.13139838291E+005  0.12200040035E+001  0.99919892977E+003  0.30000085003E+000
                    0.38420000000E+000  0.00000000000E+000 -0.50500000000E+002                   1  0.26578971818E+006  0.13508307299E+002  0.14467646216E-001  0.98553235378E+000  0.36317804012E-002  0.99636821960E+000  0.99995752472E+000  0.42475278108E-004  0.00000000000E+000  0.90688683777E+000 -0.56476166602E+002  0.32223885444E+001  0.99949744996E+003  0.30038214236E+000
                    0.28110000000E+001  0.00000000000E+000 -0.50500000000E+002                   1  0.26577197747E+006  0.15316095712E+002  0.78116487561E-002  0.99218835124E+000  0.40840054084E-002  0.99591599459E+000  0.99995755842E+000  0.42441578493E-004  0.00000000000E+000  0.94302104555E+000 -0.38734462034E+002  0.32011064107E+001  0.99924180835E+003  0.30038211236E+000
                    0.38420000000E+000  0.00000000000E+000 -0.10000000000E+003                   1  0.75108455302E+006  0.14601793535E+002  0.00000000000E+000  0.10000000000E+001  0.00000000000E+000  0.00000000000E+000  0.99998999974E+000  0.10000260042E-004  0.00000000000E+000  0.10000000000E+001  0.00000000000E+000  0.90837996790E+001  0.99957242293E+003  0.30039808281E+000
                    0.28110000000E+001  0.00000000000E+000 -0.10000000000E+003                   1  0.75108420548E+006  0.16285025381E+002  0.00000000000E+000  0.10000000000E+001  0.00000000000E+000  0.00000000000E+000  0.99998999975E+000  0.10000248235E-004  0.00000000000E+000  0.10000000000E+001  0.00000000000E+000  0.90301087767E+001  0.99931149030E+003  0.30039808281E+000
                    0.37500000000E-001  0.00000000000E+000 -0.10200000000E+003                   1  0.77069296408E+006  0.16556906003E+002  0.00000000000E+000  0.10000000000E+001  0.00000000000E+000  0.00000000000E+000  0.99998999998E+000  0.10000016526E-004  0.00000000000E+000  0.10000000000E+001  0.00000000000E+000  0.92572372782E+001  0.99927515569E+003  0.30039495282E+000
                    0.37500000000E-001  0.00000000000E+000 -0.10500000000E+003                   1  0.80010238182E+006  0.17158844501E+002  0.00000000000E+000  0.10000000000E+001  0.00000000000E+000  0.00000000000E+000  0.99999000000E+000  0.10000002469E-004  0.00000000000E+000  0.10000000000E+001  0.00000000000E+000  0.95905577115E+001  0.99918513619E+003  0.30039030283E+000
                    0.37500000000E-001  0.00000000000E+000 -0.11100000000E+003                   1  0.85891720057E+006  0.17656143720E+002  0.00000000000E+000  0.10000000000E+001  0.00000000000E+000  0.00000000000E+000  0.99999000000E+000  0.99999999980E-005  0.00000000000E+000  0.10000000000E+001  0.00000000000E+000  0.10278312892E+002  0.99912333455E+003  0.30037397286E+000
                    0.37500000000E-001  0.00000000000E+000 -0.12300000000E+003                   1  0.97654025302E+006  0.18102272651E+002  0.00000000000E+000  0.10000000000E+001  0.00000000000E+000  0.00000000000E+000  0.99999000000E+000  0.99999996909E-005  0.00000000000E+000  0.10000000000E+001  0.00000000000E+000  0.11668948115E+002  0.99909501394E+003  0.30037364292E+000
                    0.37500000000E-001  0.00000000000E+000 -0.14700000000E+003                   1  0.12117809801E+007  0.18621137257E+002  0.00000000000E+000  0.10000000000E+001  0.00000000000E+000  0.00000000000E+000  0.99999000000E+000  0.99999996860E-005  0.00000000000E+000  0.10000000000E+001  0.00000000000E+000  0.14456097346E+002  0.99910387175E+003  0.30035472304E+000
                    0.37500000000E-001  0.00000000000E+000 -0.19500000000E+003                   3  0.17311168926E+007  0.19625000000E+002  0.00000000000E+000  0.10000000000E+001  0.00000000000E+000  0.00000000000E+000  0.99999000000E+000  0.99999997478E-005  0.00000000000E+000  0.10000000000E+001  0.00000000000E+000  0.20584275944E+002  0.99914044113E+003  0.30065637744E+000
                    0.37500000000E-001  0.00000000000E+000 -0.25000000000E+000                   4  0.10134537332E+006  0.56167110504E+001  0.89392230565E+000  0.10607769435E+000  0.56082637054E-002  0.99439173629E+000  0.99998385552E+000  0.16144479050E-004  0.98480663775E+000  0.19716838124E-006 -0.18192077287E+005  0.12619651717E+001  0.10000122008E+004  0.30000274999E+000
                    0.37500000000E-001  0.00000000000E+000 -0.75000000000E+000                   4  0.10133738264E+006  0.65984985949E+001  0.90951432175E+000  0.90485678254E-001  0.60040625103E-002  0.99399593749E+000  0.99998386708E+000  0.16132924953E-004  0.10000000000E+001  0.00000000000E+000 -0.25673532425E+005  0.12571366536E+001  0.99998904919E+003  0.30000003999E+000
                    0.79290000000E-001  0.00000000000E+000 -0.25000000000E+000                   1  0.10132813202E+006  0.56133781946E+001  0.93020037645E+000  0.69799623547E-001  0.56079193396E-002  0.99439208066E+000  0.99998385826E+000  0.16141741438E-004  0.10000000000E+001  0.00000000000E+000 -0.48118299588E+005  0.12617658279E+001  0.10000122446E+004  0.30000001000E+000
                    0.79290000000E-001  0.00000000000E+000 -0.75000000000E+000                   1  0.10133437141E+006  0.66028008858E+001  0.89982291954E+000  0.10017708046E+000  0.60060271769E-002  0.99399397282E+000  0.99998386761E+000  0.16132394547E-004  0.99955729887E+000  0.48749078245E-011 -0.20537970911E+005  0.12570784742E+001  0.99998891249E+003  0.30000004000E+000
                    0.79290000000E-001  0.00000000000E+000 -0.15000000000E+001                   1  0.10134368330E+006  0.59739506899E+001  0.90174491347E+000  0.98255086528E-001  0.57494457037E-002  0.99425055430E+000  0.99998385946E+000  0.16140541669E-004  0.10000000000E+001  0.00000000000E+000 -0.21412756837E+005  0.12602215756E+001  0.10000055679E+004  0.30000007000E+000
                    0.79290000000E-001  0.00000000000E+000 -0.27500000000E+001                   1  0.10135910400E+006  0.79536174228E+001  0.89977796771E+000  0.10022203229E+000  0.65889155398E-002  0.99341108446E+000  0.99998387880E+000  0.16121197649E-004  0.99944491933E+000  0.96095603817E-011 -0.20518225542E+005  0.12509029420E+001  0.99993222517E+003  0.30000010000E+000
                    0.79290000000E-001  0.00000000000E+000 -0.47500000000E+001                   1  0.10138357527E+006  0.99997189077E+001  0.89956259025E+000  0.10043740975E+000  0.75684493699E-002  0.99243155063E+000  0.99998390032E+000  0.16099677072E-004  0.99890647596E+000  0.73472375977E-010 -0.20424056223E+005  0.12414299293E+001  0.99979418590E+003  0.30000019001E+000
                    0.79290000000E-001  0.00000000000E+000 -0.85000000000E+001                   1  0.10142917722E+006  0.11265422925E+002  0.89957114822E+000  0.10042885178E+000  0.82345756517E-002  0.99176542435E+000  0.99998391035E+000  0.16089647895E-004  0.99892787085E+000  0.69243693147E-010 -0.20427784291E+005  0.12359650088E+001  0.99967880425E+003  0.30000031001E+000
                    0.79290000000E-001  0.00000000000E+000 -0.13500000000E+002                   1  0.10148985520E+006  0.10346185679E+002  0.89395284729E+000  0.10604715271E+000  0.77386790087E-002  0.99226132099E+000  0.99998388786E+000  0.16112136640E-004  0.98488297875E+000  0.19421038850E-006 -0.18203056599E+005  0.12410852082E+001  0.99976487206E+003  0.30000049002E+000
                    0.79290000000E-001  0.00000000000E+000 -0.18500000000E+002                   1  0.10155056174E+006  0.10485668787E+002  0.89188420522E+000  0.10811579478E+000  0.78067695720E-002  0.99219323043E+000  0.99998387999E+000  0.16120006373E-004  0.97971259056E+000  0.46955580774E-006 -0.17483536948E+005  0.12411659475E+001  0.99975260177E+003  0.30000067003E+000
                    0.79290000000E-001  0.00000000000E+000 -0.23500000000E+002                   1  0.10161134004E+006  0.10617740660E+002  0.87500288802E+000  0.12499711198E+000  0.78714678512E-002  0.99212853215E+000  0.99998387203E+000  0.16127973658E-004  0.93756728081E+000  0.13743923922E-004 -0.13027727832E+005  0.12412823840E+001  0.99974073393E+003  0.30000085003E+000
                    0.79290000000E-001  0.00000000000E+000 -0.28500000000E+002                   1  0.10167218160E+006  0.10782407936E+002  0.86580845016E+000  0.13419154984E+000  0.79539636417E-002  0.99204603636E+000  0.99998386451E+000  0.16135486601E-004  0.91467392951E+000  0.35210668246E-004 -0.11336568974E+005  0.12412436077E+001  0.99972558946E+003  0.29993945004E+000
                    0.79290000000E-001  0.00000000000E+000 -0.33500000000E+002                   1  0.10173377452E+006  0.10320412217E+002  0.70638831544E+000  0.29361168456E+000  0.77066875054E-002  0.99229331249E+000  0.99998384831E+000  0.16151692475E-004  0.54089032695E+000  0.65717400675E-002 -0.27576532895E+004  0.12442051360E+001  0.99976722994E+003  0.29993278004E+000
                    0.79290000000E-001  0.00000000000E+000 -0.38500000000E+002                   1  0.14821026451E+006  0.12177578521E+002  0.83123917531E-001  0.91687608247E+000  0.59775567432E-002  0.99402244326E+000  0.99997640392E+000  0.23596077063E-004  0.00000000000E+000  0.64668962344E+000 -0.17454527120E+003  0.18026974284E+001  0.99960390008E+003  0.30002296220E+000
                    0.79290000000E-001  0.00000000000E+000 -0.42250000000E+002                   1  0.18496972166E+006  0.11598125626E+002  0.66390867896E-001  0.93360913210E+000  0.46060230649E-002  0.99539397694E+000  0.99997048656E+000  0.29513444536E-004  0.00000000000E+000  0.69957738854E+000 -0.14950065072E+003  0.22562538591E+001  0.99968401270E+003  0.30013448228E+000
                    0.79290000000E-001  0.00000000000E+000 -0.44250000000E+002                   1  0.20456611060E+006  0.11610669220E+002  0.53284781184E-001  0.94671521882E+000  0.41671419306E-002  0.99583285807E+000  0.99996733677E+000  0.32663229670E-004  0.00000000000E+000  0.74461627822E+000 -0.12902353818E+003  0.24958422372E+001  0.99969189625E+003  0.30019429230E+000
                    0.79290000000E-001  0.00000000000E+000 -0.45500000000E+002                   1  0.21681576285E+006  0.11629239525E+002  0.46895825020E-001  0.95310417498E+000  0.39359903728E-002  0.99606400963E+000  0.99996536801E+000  0.34631992468E-004  0.00000000000E+000  0.76793782917E+000 -0.11862561732E+003  0.26454934438E+001  0.99969569510E+003  0.30023259232E+000
                    0.79290000000E-001  0.00000000000E+000 -0.46500000000E+002                   1  0.22662055024E+006  0.11643084617E+002  0.45003785190E-001  0.95499621481E+000  0.37687683852E-002  0.99623123161E+000  0.99996379217E+000  0.36207829347E-004  0.00000000000E+000  0.77503810734E+000 -0.11547883013E+003  0.27652725439E+001  0.99969883894E+003  0.30026293234E+000
                    0.79290000000E-001  0.00000000000E+000 -0.47500000000E+002                   1  0.23642403363E+006  0.11658350643E+002  0.42456514336E-001  0.95754348566E+000  0.36158090726E-002  0.99638419093E+000  0.99996221657E+000  0.37783433893E-004  0.00000000000E+000  0.78474727650E+000 -0.11118624209E+003  0.28850090593E+001  0.99970182890E+003  0.30029270235E+000
                    0.79290000000E-001  0.00000000000E+000 -0.48500000000E+002                   1  0.24622798157E+006  0.11675295484E+002  0.40307657274E-001  0.95969234273E+000  0.34754380638E-002  0.99652456194E+000  0.99996064091E+000  0.39359086572E-004  0.00000000000E+000  0.79307807404E+000 -0.10751034677E+003  0.30047200023E+001  0.99970463756E+003  0.30032259237E+000
                    0.79290000000E-001  0.00000000000E+000 -0.49500000000E+002                   1  0.25603185444E+006  0.11696222485E+002  0.38279952948E-001  0.96172004705E+000  0.33467259952E-002  0.99665327400E+000  0.99995906533E+000  0.40934666965E-004  0.00000000000E+000  0.80106290803E+000 -0.10399125067E+003  0.31243704315E+001  0.99970701897E+003  0.30035216238E+000
                    0.79290000000E-001  0.00000000000E+000 -0.50500000000E+002                   1  0.26579282457E+006  0.11740313914E+002  0.15778467116E-001  0.98422153288E+000  0.32330096398E-002  0.99676699036E+000  0.99995749699E+000  0.42503010245E-004  0.00000000000E+000  0.90026934519E+000 -0.59579083793E+002  0.32432052622E+001  0.99970690423E+003  0.30038211238E+000
                    0.79290000000E-001  0.00000000000E+000 -0.51500000000E+002                   1  0.27553768128E+006  0.11761363761E+002  0.00000000000E+000  0.10000000000E+001  0.00000000000E+000  0.00000000000E+000  0.99995896049E+000  0.41039514879E-004  0.00000000000E+000  0.10000000000E+001  0.00000000000E+000  0.33620878613E+001  0.99970922406E+003  0.30039731237E+000
                    0.79290000000E-001  0.00000000000E+000 -0.52500000000E+002                   1  0.28534214186E+006  0.11774357384E+002  0.00000000000E+000  0.10000000000E+001  0.00000000000E+000  0.00000000000E+000  0.99995827368E+000  0.41726317075E-004  0.00000000000E+000  0.10000000000E+001  0.00000000000E+000  0.34817833205E+001  0.99971242936E+003  0.30039793239E+000
                    0.79290000000E-001  0.00000000000E+000 -0.53500000000E+002                   1  0.29514662697E+006  0.11786335614E+002  0.00000000000E+000  0.10000000000E+001  0.00000000000E+000  0.00000000000E+000  0.99995719930E+000  0.42800695495E-004  0.00000000000E+000  0.10000000000E+001  0.00000000000E+000  0.36014814199E+001  0.99971574086E+003  0.30039856240E+000
                    0.79290000000E-001  0.00000000000E+000 -0.54500000000E+002                   1  0.30495113738E+006  0.11797449198E+002  0.00000000000E+000  0.10000000000E+001  0.00000000000E+000  0.00000000000E+000  0.99995640544E+000  0.43594558990E-004  0.00000000000E+000  0.10000000000E+001  0.00000000000E+000  0.37211814172E+001  0.99971914290E+003  0.30039865241E+000
                    0.79290000000E-001  0.00000000000E+000 -0.55500000000E+002                   1  0.31475567351E+006  0.11809282381E+002  0.00000000000E+000  0.10000000000E+001  0.00000000000E+000  0.00000000000E+000  0.99995641698E+000  0.43583018555E-004  0.00000000000E+000  0.10000000000E+001  0.00000000000E+000  0.38408623869E+001  0.99972246519E+003  0.30039933242E+000
                    0.79290000000E-001  0.00000000000E+000 -0.56500000000E+002                   1  0.32456023531E+006  0.11820360021E+002  0.00000000000E+000  0.10000000000E+001  0.00000000000E+000  0.00000000000E+000  0.99995798157E+000  0.42018433037E-004  0.00000000000E+000  0.10000000000E+001  0.00000000000E+000  0.39605445466E+001  0.99972586659E+003  0.30039981243E+000