        VARIABLES=                 X                 Y                 Z              HEAT      FLOW_WATER_G        FLOW_AIR_G      FLOW_WATER_L        FLOW_AIR_L     FDIFF_WATER_G       FDIFF_AIR_G     FDIFF_WATER_L       FDIFF_AIR_L
 ZONE T=" 0.7233000E+05 SEC"  I =     2419 
                    0.74998205398E-001  0.00000000000E+000 -0.25000000000E+000  0.12680913985E-002 -0.11322906842E-010 -0.10654893723E-008 -0.42704605537E-013 -0.68612816195E-018  0.98336942522E-009 -0.98336942522E-009  0.10163397478E-021 -0.10163397471E-021
                    0.74998205398E-001  0.00000000000E+000 -0.75000000000E+000 -0.13143112186E-001 -0.27388100526E-011 -0.25537534958E-009  0.31226308917E-009  0.50066911348E-014 -0.23178488395E-009  0.23178488395E-009  0.63681121024E-023 -0.63681121051E-023
                    0.37597140865E-001  0.00000000000E+000 -0.15000000000E+001  0.29362115404E+002  0.00000000000E+000  0.00000000000E+000  0.00000000000E+000  0.00000000000E+000 -0.25239352416E-011  0.25239352416E-011 -0.21658458102E-020  0.21658458100E-020
                    0.37597140865E-001  0.00000000000E+000 -0.27500000000E+001  0.29407889650E+002  0.00000000000E+000  0.00000000000E+000  0.00000000000E+000  0.00000000000E+000 -0.16486125582E-011  0.16486125582E-011 -0.87830797851E-020  0.87830797834E-020
                    0.37597140865E-001  0.00000000000E+000 -0.47500000000E+001  0.29538677153E+002  0.00000000000E+000  0.00000000000E+000  0.00000000000E+000  0.00000000000E+000  0.16173275574E-011 -0.16173275574E-011 -0.18655833734E-019  0.18655833725E-019
                    0.37597140865E-001  0.00000000000E+000 -0.85000000000E+001  0.29886897484E+002  0.00000000000E+000  0.00000000000E+000  0.00000000000E+000  0.00000000000E+000  0.14822386063E-010 -0.14822386063E-010 -0.32869576685E-019  0.32869576631E-019
                    0.37597140865E-001  0.00000000000E+000 -0.13500000000E+002  0.56324153502E+002  0.00000000000E+000  0.00000000000E+000  0.00000000000E+000  0.00000000000E+000  0.21507651870E-010 -0.21507651870E-010 -0.34077914774E-018  0.34077914777E-018
                    0.37597140865E-001  0.00000000000E+000 -0.18500000000E+002  0.56495109460E+002  0.00000000000E+000  0.00000000000E+000  0.00000000000E+000  0.00000000000E+000  0.31946023574E-010 -0.31946023574E-010 -0.19219988010E-017  0.19219988008E-017
                    0.37597140865E-001  0.00000000000E+000 -0.23500000000E+002  0.83324040802E+002  0.00000000000E+000  0.00000000000E+000  0.00000000000E+000  0.00000000000E+000  0.80326304861E-010 -0.80326304861E-010  0.40835523173E-017 -0.40835523123E-017
                    0.37597140865E-001  0.00000000000E+000 -0.28500000000E+002  0.85524899967E+002  0.00000000000E+000  0.00000000000E+000  0.00000000000E+000  0.00000000000E+000  0.71405821158E-009 -0.71405821158E-009  0.19891927673E-015 -0.19891927673E-015
                    0.37597140865E-001  0.00000000000E+000 -0.33500000000E+002  0.92144014026E+002  0.00000000000E+000  0.00000000000E+000  0.00000000000E+000  0.00000000000E+000 -0.00000000000E+000  0.00000000000E+000 -0.30914994821E-015  0.30914994822E-015
                    0.37597140865E-001  0.00000000000E+000 -0.38500000000E+002  0.92219692617E+002  0.00000000000E+000  0.00000000000E+000  0.00000000000E+000  0.00000000000E+000 -0.00000000000E+000  0.00000000000E+000 -0.18461500741E-015  0.18461500741E-015
                    0.37597140865E-001  0.00000000000E+000 -0.42250000000E+002  0.29705223277E+002  0.00000000000E+000  0.00000000000E+000  0.00000000000E+000  0.00000000000E+000 -0.00000000000E+000  0.00000000000E+000 -0.14673409832E-015  0.14673409832E-015
                    0.37597140865E-001  0.00000000000E+000 -0.44250000000E+002  0.29572373964E+002  0.00000000000E+000  0.00000000000E+000  0.00000000000E+000  0.00000000000E+000 -0.00000000000E+000  0.00000000000E+000 -0.13209308357E-015  0.13209308357E-015
                    0.37597140865E-001  0.00000000000E+000 -0.45500000000E+002  0.29659171839E+002  0.00000000000E+000  0.00000000000E+000  0.00000000000E+000  0.00000000000E+000 -0.00000000000E+000  0.00000000000E+000 -0.10768750749E-015  0.10768750749E-015
                    0.37597140865E-001  0.00000000000E+000 -0.46500000000E+002  0.29554327611E+002  0.00000000000E+000  0.00000000000E+000  0.00000000000E+000  0.00000000000E+000 -0.00000000000E+000  0.00000000000E+000 -0.12101939895E-015  0.12101939895E-015
                    0.37597140865E-001  0.00000000000E+000 -0.47500000000E+002  0.29597888870E+002  0.00000000000E+000  0.00000000000E+000  0.00000000000E+000  0.00000000000E+000 -0.00000000000E+000  0.00000000000E+000 -0.13332359483E-015  0.13332359483E-015
                    0.37597140865E-001  0.00000000000E+000 -0.48500000000E+002  0.29577739984E+002  0.00000000000E+000  0.00000000000E+000  0.00000000000E+000  0.00000000000E+000 -0.00000000000E+000  0.00000000000E+000 -0.14596488727E-015  0.14596488726E-015
                    0.37597140865E-001  0.00000000000E+000 -0.49500000000E+002  0.29585113461E+002  0.00000000000E+000  0.00000000000E+000  0.00000000000E+000  0.00000000000E+000 -0.00000000000E+000  0.00000000000E+000 -0.16013867777E-015  0.16013867777E-015
                    0.37597140865E-001  0.00000000000E+000 -0.50500000000E+002  0.29617013577E+002  0.00000000000E+000  0.00000000000E+000  0.00000000000E+000  0.00000000000E+000 -0.00000000000E+000  0.00000000000E+000 -0.18026956274E-015  0.18026956274E-015
                    0.37597140865E-001  0.00000000000E+000 -0.51500000000E+002  0.29754324413E+002  0.00000000000E+000  0.00000000000E+000  0.00000000000E+000  0.00000000000E+000 -0.00000000000E+000 -0.00000000000E+000 -0.10731627710E-013  0.10731627710E-013
                    0.37597140865E-001  0.00000000000E+000 -0.52500000000E+002  0.29836737992E+002  0.00000000000E+000  0.00000000000E+000  0.00000000000E+000  0.00000000000E+000 -0.00000000000E+000 -0.00000000000E+000 -0.12231285718E-013  0.12231285718E-013
                    0.37597140865E-001  0.00000000000E+000 -0.53500000000E+002  0.29698582848E+002  0.00000000000E+000  0.00000000000E+000  0.00000000000E+000  0.00000000000E+000 -0.00000000000E+000 -0.00000000000E+000 -0.91802335421E-014  0.91802335420E-014
                    0.37597140865E-001  0.00000000000E+000 -0.54500000000E+002  0.29731497970E+002  0.00000000000E+000  0.00000000000E+000  0.00000000000E+000  0.00000000000E+000 -0.00000000000E+000 -0.00000000000E+000 -0.54878521226E-014  0.54878521226E-014
                    0.37597140865E-001  0.00000000000E+000 -0.55500000000E+002  0.29702167121E+002  0.00000000000E+000  0.00000000000E+000  0.00000000000E+000  0.00000000000E+000 -0.00000000000E+000 -0.00000000000E+000 -0.29801881038E-014  0.29801881038E-014
                    0.37597140865E-001  0.00000000000E+000 -0.56500000000E+002  0.29656926407E+002  0.00000000000E+000  0.00000000000E+000  0.00000000000E+000  0.00000000000E+000 -0.00000000000E+000 -0.00000000000E+000 -0.17113067120E-014  0.17113067120E-014
                    0.37597140865E-001  0.00000000000E+000 -0.57750000000E+002  0.29495264729E+002  0.00000000000E+000  0.00000000000E+000  0.00000000000E+000  0.00000000000E+000 -0.00000000000E+000 -0.00000000000E+000 -0.16991790894E-014  0.16991790894E-014
                    0.37597140865E-001  0.00000000000E+000 -0.59750000000E+002  0.29566759517E+002  0.00000000000E+000  0.00000000000E+000  0.00000000000E+000  0.00000000000E+000 -0.00000000000E+000 -0.00000000000E+000 -0.24054364436E-014  0.24054364435E-014
                    0.37597140865E-001  0.00000000000E+000 -0.63500000000E+002  0.98935574802E+002  0.00000000000E+000  0.00000000000E+000  0.00000000000E+000  0.00000000000E+000 -0.00000000000E+000 -0.00000000000E+000 -0.47538923271E-014  0.47538923272E-014
                    0.37597140865E-001  0.00000000000E+000 -0.68500000000E+002  0.98714400478E+002  0.00000000000E+000  0.00000000000E+000  0.00000000000E+000  0.00000000000E+000 -0.00000000000E+000 -0.00000000000E+000 -0.45705310597E-014  0.45705310597E-014
                    0.37597140865E-001  0.00000000000E+000 -0.76000000000E+002  0.16108047017E+003  0.00000000000E+000  0.00000000000E+000  0.00000000000E+000  0.00000000000E+000 -0.00000000000E+000 -0.00000000000E+000 -0.81660127322E-014  0.81660127324E-014
                    0.37597140865E-001  0.00000000000E+000 -0.86000000000E+002  0.16944809969E+003  0.00000000000E+000  0.00000000000E+000  0.00000000000E+000  0.00000000000E+000 -0.00000000000E+000 -0.00000000000E+000 -0.66615972894E-014  0.66615972894E-014
                    0.37597140865E-001  0.00000000000E+000 -0.93500000000E+002  0.80720090285E+002  0.00000000000E+000  0.00000000000E+000  0.00000000000E+000  0.00000000000E+000 -0.00000000000E+000 -0.00000000000E+000 -0.28318866804E-014  0.28318866804E-014
                    0.37597140865E-001  0.00000000000E+000 -0.97500000000E+002  0.81309578214E+002  0.00000000000E+000  0.00000000000E+000  0.00000000000E+000  0.00000000000E+000 -0.00000000000E+000 -0.00000000000E+000 -0.17806325874E-014  0.17806325874E-014
                    0.37597140865E-001  0.00000000000E+000 -0.10000000000E+003  0.81481782597E+002  0.00000000000E+000  0.00000000000E+000  0.00000000000E+000  0.00000000000E+000 -0.00000000000E+000 -0.00000000000E+000 -0.13501097913E-014  0.13501097913E-014
                    0.74998205398E-001  0.00000000000E+000 -0.10200000000E+003  0.23739696386E+001  0.00000000000E+000  0.00000000000E+000  0.32810421487E-004  0.32810748765E-009  0.00000000000E+000  0.00000000000E+000  0.00000000000E+000 -0.13647499534E-024
                    0.74998205398E-001  0.00000000000E+000 -0.10500000000E+003 -0.48695853367E+000  0.00000000000E+000  0.00000000000E+000 -0.63366333865E-005 -0.63366965934E-010  0.00000000000E+000  0.00000000000E+000  0.00000000000E+000 -0.32219540306E-026
                    0.74998205398E-001  0.00000000000E+000 -0.11100000000E+003 -0.62347183511E+000  0.00000000000E+000  0.00000000000E+000 -0.82020946121E-005 -0.82021764267E-010  0.00000000000E+000  0.00000000000E+000  0.00000000000E+000 -0.24548100266E-026
                    0.74998205398E-001  0.00000000000E+000 -0.12300000000E+003 -0.98951874120E+000  0.00000000000E+000  0.00000000000E+000 -0.12853571855E-004 -0.12853700068E-009  0.00000000000E+000  0.00000000000E+000  0.00000000000E+000  0.18410953126E-026
                    0.74998205398E-001  0.00000000000E+000 -0.14700000000E+003 -0.85213405125E+000  0.00000000000E+000  0.00000000000E+000 -0.10761166863E-004 -0.10761274204E-009  0.00000000000E+000  0.00000000000E+000  0.00000000000E+000 -0.12273927002E-026
                    0.74998205398E-001  0.00000000000E+000 -0.19500000000E+003  0.22946500753E+000  0.00000000000E+000  0.00000000000E+000  0.27344879763E-005  0.27345152523E-010  0.00000000000E+000  0.00000000000E+000  0.00000000000E+000  0.00000000000E+000
                    0.83584331342E-001  0.00000000000E+000 -0.25000000000E+000  0.75051160883E-003 -0.18713352755E-010 -0.17556273919E-008 -0.28314624018E-011 -0.45362156185E-016  0.32297648755E-011 -0.32297648755E-011  0.10201664671E-026 -0.10203152710E-026
                    0.83584331342E-001  0.00000000000E+000 -0.75000000000E+000 -0.21045278922E-002 -0.11653814247E-009 -0.10873992037E-007  0.10347155331E-009  0.16590181087E-014 -0.26591993000E-011  0.26591993000E-011 -0.13704787078E-026  0.13704498738E-026
                    0.83584331342E-001  0.00000000000E+000 -0.15000000000E+001  0.28148808945E+002  0.78413133140E-009  0.85821055709E-007  0.49069470201E-008  0.78977993815E-013  0.80732705155E-007 -0.80732705155E-007  0.33861878764E-022 -0.33861878596E-022
                    0.83584331342E-001  0.00000000000E+000 -0.27500000000E+001  0.28213800215E+002  0.84788084481E-009  0.87994953103E-007 -0.81079978129E-008 -0.13072437163E-012  0.84525824811E-007 -0.84525824811E-007  0.11666095834E-021 -0.11666095785E-021
                    0.83584331342E-001  0.00000000000E+000 -0.47500000000E+001  0.28292806829E+002  0.90503445785E-009  0.90060545225E-007 -0.25611777589E-007 -0.41408947642E-012  0.87520031880E-007 -0.87520031880E-007  0.29001878998E-021 -0.29001878225E-021
                    0.83584331342E-001  0.00000000000E+000 -0.85000000000E+001  0.28643799545E+002  0.92779053217E-009  0.89238273846E-007 -0.37430472932E-007 -0.60881280014E-012  0.90152718855E-007 -0.90152718855E-007  0.85933366201E-021 -0.85933360261E-021
                    0.83584331342E-001  0.00000000000E+000 -0.13500000000E+002  0.54434741594E+002  0.16782884648E-008  0.16633250008E-006 -0.10553054123E-006 -0.17326702730E-011  0.15994634717E-006 -0.15994634717E-006  0.80360334265E-020 -0.80360333717E-020
                    0.83584331342E-001  0.00000000000E+000 -0.18500000000E+002  0.54636781041E+002  0.33834835754E-008  0.33259061231E-006 -0.90968096865E-007 -0.15069150401E-011  0.14510334209E-006 -0.14510334209E-006  0.83685238336E-019 -0.83685238433E-019
                    0.83584331342E-001  0.00000000000E+000 -0.23500000000E+002  0.81176825715E+002  0.28988486328E-008  0.29199085424E-006 -0.48286294818E-005 -0.82208231579E-010  0.24657293007E-007 -0.24657293007E-007  0.10407096066E-015 -0.10407096374E-015
                    0.83584331342E-001  0.00000000000E+000 -0.28500000000E+002  0.83164060617E+002  0.84733602359E-009  0.94284766686E-007 -0.83176361984E-005 -0.15948367706E-009  0.49063673989E-009 -0.49063673989E-009  0.47184240946E-015 -0.47184239515E-015
                    0.83584331342E-001  0.00000000000E+000 -0.33500000000E+002  0.91357442057E+002  0.00000000000E+000  0.00000000000E+000  0.12739255926E-004  0.30059400001E-009  0.00000000000E+000 -0.00000000000E+000  0.84298019964E-015 -0.84298021980E-015
                    0.83584331342E-001  0.00000000000E+000 -0.38500000000E+002  0.89604629399E+002  0.00000000000E+000  0.00000000000E+000 -0.14404060006E-004 -0.41537501077E-009  0.00000000000E+000 -0.00000000000E+000  0.84743992907E-015 -0.84743990460E-015
                    0.83584331342E-001  0.00000000000E+000 -0.42250000000E+002  0.28975308966E+002  0.00000000000E+000  0.00000000000E+000 -0.65129755004E-005 -0.21550188923E-009  0.00000000000E+000 -0.00000000000E+000  0.27934902853E-015 -0.27934902360E-015
                    0.83584331342E-001  0.00000000000E+000 -0.44250000000E+002  0.28768957035E+002  0.00000000000E+000  0.00000000000E+000 -0.50407929719E-005 -0.17891435144E-009  0.00000000000E+000 -0.00000000000E+000  0.28529567273E-015 -0.28529567522E-015
                    0.83584331342E-001  0.00000000000E+000 -0.45500000000E+002  0.28894167611E+002  0.00000000000E+000  0.00000000000E+000 -0.37253514327E-005 -0.13802143320E-009  0.00000000000E+000 -0.00000000000E+000  0.28844193915E-015 -0.28844193490E-015
                    0.83584331342E-001  0.00000000000E+000 -0.46500000000E+002  0.29010742473E+002  0.00000000000E+000  0.00000000000E+000 -0.28249507382E-005 -0.10821672998E-009  0.00000000000E+000 -0.00000000000E+000  0.28861716969E-015 -0.28861716747E-015
                    0.83584331342E-001  0.00000000000E+000 -0.47500000000E+002  0.28998323281E+002  0.00000000000E+000  0.00000000000E+000 -0.34152125088E-005 -0.13518395259E-009  0.00000000000E+000 -0.00000000000E+000  0.29559348620E-015 -0.29559347790E-015
                    0.83584331342E-001  0.00000000000E+000 -0.48500000000E+002  0.28866415567E+002  0.00000000000E+000  0.00000000000E+000 -0.52288088871E-005 -0.21375210481E-009  0.00000000000E+000 -0.00000000000E+000  0.29262407316E-015 -0.29262406970E-015
                    0.83584331342E-001  0.00000000000E+000 -0.49500000000E+002  0.28554030427E+002  0.00000000000E+000  0.00000000000E+000 -0.10443610502E-004 -0.44081852204E-009  0.00000000000E+000 -0.00000000000E+000  0.29641501375E-015 -0.29641501150E-015
                    0.83584331342E-001  0.00000000000E+000 -0.50500000000E+002  0.27409544075E+002  0.00000000000E+000  0.00000000000E+000 -0.29664107450E-004 -0.12933035474E-008  0.00000000000E+000 -0.00000000000E+000  0.29455035534E-015 -0.29455035722E-015
                    0.83584331342E-001  0.00000000000E+000 -0.51500000000E+002  0.29652295272E+002  0.00000000000E+000  0.00000000000E+000  0.32605614408E-005  0.14574601086E-009  0.00000000000E+000  0.00000000000E+000  0.96991638598E-015 -0.96991638908E-015
                    0.83584331342E-001  0.00000000000E+000 -0.52500000000E+002  0.37565720453E+002  0.00000000000E+000  0.00000000000E+000  0.13122016541E-003  0.51037927713E-008  0.00000000000E+000  0.00000000000E+000 -0.46066267931E-014  0.46066267949E-014
                    0.83584331342E-001  0.00000000000E+000 -0.53500000000E+002  0.25528275719E+002  0.00000000000E+000  0.00000000000E+000 -0.64155365600E-004 -0.18741053999E-008  0.00000000000E+000  0.00000000000E+000 -0.93233711200E-014  0.93233711254E-014
                    0.83584331342E-001  0.00000000000E+000 -0.54500000000E+002  0.28453682363E+002  0.00000000000E+000  0.00000000000E+000 -0.16257214271E-004 -0.33153145394E-009  0.00000000000E+000  0.00000000000E+000 -0.91909743619E-014  0.91909743590E-014
                    0.83584331342E-001  0.00000000000E+000 -0.55500000000E+002  0.28966697535E+002  0.00000000000E+000  0.00000000000E+000 -0.72560669061E-005 -0.10674627409E-009  0.00000000000E+000  0.00000000000E+000 -0.61486203351E-014  0.61486203321E-014
                    0.83584331342E-001  0.00000000000E+000 -0.56500000000E+002  0.29107704030E+002  0.00000000000E+000  0.00000000000E+000 -0.41836881939E-005 -0.49500176104E-010  0.00000000000E+000  0.00000000000E+000 -0.31498191250E-014  0.31498191241E-014
                    0.83584331342E-001  0.00000000000E+000 -0.57750000000E+002  0.29099721840E+002  0.00000000000E+000  0.00000000000E+000 -0.29027419576E-005 -0.30369075410E-010  0.00000000000E+000  0.00000000000E+000 -0.15055411045E-014  0.15055410954E-014
                    0.83584331342E-001  0.00000000000E+000 -0.59750000000E+002  0.29144763650E+002  0.00000000000E+000  0.00000000000E+000 -0.32329508121E-005 -0.32543341253E-010  0.00000000000E+000  0.00000000000E+000 -0.41021352241E-015  0.41021352042E-015
                    0.83584331342E-001  0.00000000000E+000 -0.63500000000E+002  0.97230732344E+002  0.00000000000E+000  0.00000000000E+000 -0.70807108828E-005 -0.70837415115E-010  0.00000000000E+000  0.00000000000E+000 -0.70156701694E-016  0.70156705179E-016
                    0.83584331342E-001  0.00000000000E+000 -0.68500000000E+002  0.97221484039E+002  0.00000000000E+000  0.00000000000E+000 -0.49549957440E-005 -0.49551263990E-010  0.00000000000E+000  0.00000000000E+000 -0.10988296832E-016  0.10988247968E-016
                    0.83584331342E-001  0.00000000000E+000 -0.76000000000E+002  0.15865479447E+003  0.00000000000E+000  0.00000000000E+000 -0.76256298560E-005 -0.76257059068E-010  0.00000000000E+000  0.00000000000E+000 -0.46564991535E-019  0.46519147117E-019
                    0.83584331342E-001  0.00000000000E+000 -0.86000000000E+002  0.16725768011E+003  0.00000000000E+000  0.00000000000E+000 -0.60366902728E-005 -0.60367504690E-010  0.00000000000E+000  0.00000000000E+000 -0.35622637092E-019  0.35669734477E-019
                    0.83584331342E-001  0.00000000000E+000 -0.93500000000E+002  0.79914559766E+002  0.00000000000E+000  0.00000000000E+000 -0.23662019271E-005 -0.23662255233E-010  0.00000000000E+000  0.00000000000E+000 -0.15139330958E-019  0.15160004220E-019
                    0.83584331342E-001  0.00000000000E+000 -0.97500000000E+002  0.80687301454E+002  0.00000000000E+000  0.00000000000E+000 -0.14672359407E-005 -0.14672505721E-010  0.00000000000E+000  0.00000000000E+000 -0.95454746566E-020  0.95375709756E-020
                    0.83584331342E-001  0.00000000000E+000 -0.10000000000E+003  0.80950760481E+002  0.00000000000E+000  0.00000000000E+000 -0.11048067336E-005 -0.11048177504E-010  0.00000000000E+000  0.00000000000E+000 -0.72258172856E-020  0.72262967492E-020
                    0.83584331342E-001  0.00000000000E+000 -0.10200000000E+003  0.24633876091E+001  0.00000000000E+000  0.00000000000E+000  0.32628637162E-004  0.32628962627E-009  0.00000000000E+000  0.00000000000E+000  0.00000000000E+000  0.67437928769E-024
                    0.83584331342E-001  0.00000000000E+000 -0.10500000000E+003 -0.60493338655E+000  0.00000000000E+000  0.00000000000E+000 -0.78725187339E-005 -0.78725972610E-010  0.00000000000E+000  0.00000000000E+000  0.00000000000E+000  0.25621117966E-025
                    0.83584331342E-001  0.00000000000E+000 -0.11100000000E+003 -0.77360849799E+000  0.00000000000E+000  0.00000000000E+000 -0.10187361489E-004 -0.10187463107E-009  0.00000000000E+000  0.00000000000E+000  0.00000000000E+000  0.90040232011E-025
                    0.83584331342E-001  0.00000000000E+000 -0.12300000000E+003 -0.12277812246E+001  0.00000000000E+000  0.00000000000E+000 -0.15964791901E-004 -0.15964951148E-009  0.00000000000E+000  0.00000000000E+000  0.00000000000E+000  0.62103693882E-025
                    0.83584331342E-001  0.00000000000E+000 -0.14700000000E+003 -0.10583957902E+001  0.00000000000E+000  0.00000000000E+000 -0.13365936817E-004 -0.13366070140E-009  0.00000000000E+000  0.00000000000E+000  0.00000000000E+000  0.86965515075E-025
                    0.83584331342E-001  0.00000000000E+000 -0.19500000000E+003  0.28500597932E+000  0.00000000000E+000  0.00000000000E+000  0.33963584775E-005  0.33963923556E-010  0.00000000000E+000  0.00000000000E+000  0.00000000000E+000  0.24859696116E-025
                    0.93414398785E-001  0.00000000000E+000 -0.25000000000E+000  0.17069134138E-003 -0.14516612044E-010 -0.13618998560E-008 -0.30597161371E-011 -0.49018950970E-016  0.11255834368E-011 -0.11255834368E-011  0.36714249998E-027 -0.36716619824E-027
                    0.93414398785E-001  0.00000000000E+000 -0.75000000000E+000  0.80470712702E-002 -0.23807421139E-009 -0.22214368069E-007 -0.37306520845E-009 -0.59815661095E-014  0.36097571115E-010 -0.36097571115E-010  0.23921448594E-025 -0.23921457806E-025
                    0.93414398785E-001  0.00000000000E+000 -0.15000000000E+001  0.26766645432E+002  0.83079107076E-009  0.88429769380E-007  0.10367919041E-007  0.16680498745E-012  0.78537922519E-007 -0.78537922519E-007  0.50310550301E-022 -0.50310550545E-022
                    0.93414398785E-001  0.00000000000E+000 -0.27500000000E+001  0.26853240016E+002  0.87597827297E-009  0.89247478323E-007  0.16714019321E-007  0.26932467763E-012  0.81785949569E-007 -0.81785949569E-007  0.11899926134E-021 -0.11899926331E-021
                    0.93414398785E-001  0.00000000000E+000 -0.47500000000E+001  0.26873037173E+002  0.90981137321E-009  0.89546136167E-007  0.13238447241E-007  0.21396256761E-012  0.83983384357E-007 -0.83983384357E-007  0.27492765566E-021 -0.27492766324E-021
                    0.93414398785E-001  0.00000000000E+000 -0.85000000000E+001  0.27173552248E+002  0.87948520314E-009  0.84129043372E-007  0.28756743098E-007  0.46764763598E-012  0.85949781828E-007 -0.85949781828E-007  0.81851226515E-021 -0.81851228477E-021
                    0.93414398785E-001  0.00000000000E+000 -0.13500000000E+002  0.52149422495E+002  0.17247891741E-008  0.16918007331E-006 -0.29583136638E-007 -0.48563416158E-012  0.15470191361E-006 -0.15470191361E-006  0.77411524947E-020 -0.77411525840E-020
                    0.93414398785E-001  0.00000000000E+000 -0.18500000000E+002  0.52414666674E+002  0.58258567947E-008  0.56704413497E-006 -0.94475070375E-009 -0.15647573052E-013  0.14038218748E-006 -0.14038218748E-006  0.80899922378E-019 -0.80899923059E-019
                    0.93414398785E-001  0.00000000000E+000 -0.23500000000E+002  0.78675517921E+002  0.63419619108E-008  0.63270037349E-006 -0.10874656876E-004 -0.18511502799E-009  0.24217518497E-007 -0.24217518497E-007  0.10207295146E-015 -0.10207294927E-015
                    0.93414398785E-001  0.00000000000E+000 -0.28500000000E+002  0.80190219548E+002  0.19473488195E-008  0.21488530363E-006 -0.18718769448E-004 -0.35887433772E-009  0.48228510216E-009 -0.48228510216E-009  0.45750963758E-015 -0.45750964616E-015
                    0.93414398785E-001  0.00000000000E+000 -0.33500000000E+002  0.90338786554E+002  0.00000000000E+000  0.00000000000E+000  0.29162959053E-004  0.68805715108E-009  0.00000000000E+000 -0.00000000000E+000  0.82434442765E-015 -0.82434440593E-015
                    0.93414398785E-001  0.00000000000E+000 -0.38500000000E+002  0.86262155003E+002  0.00000000000E+000  0.00000000000E+000 -0.33048970492E-004 -0.95297050157E-009  0.00000000000E+000 -0.00000000000E+000  0.84341208208E-015 -0.84341207405E-015
                    0.93414398785E-001  0.00000000000E+000 -0.42250000000E+002  0.27936213764E+002  0.00000000000E+000  0.00000000000E+000 -0.15066821444E-004 -0.49851136871E-009  0.00000000000E+000 -0.00000000000E+000  0.28982776260E-015 -0.28982776018E-015
                    0.93414398785E-001  0.00000000000E+000 -0.44250000000E+002  0.27771020370E+002  0.00000000000E+000  0.00000000000E+000 -0.11461010412E-004 -0.40676315577E-009  0.00000000000E+000 -0.00000000000E+000  0.29509132779E-015 -0.29509132109E-015
                    0.93414398785E-001  0.00000000000E+000 -0.45500000000E+002  0.27945506476E+002  0.00000000000E+000  0.00000000000E+000 -0.83812697477E-005 -0.31049168259E-009  0.00000000000E+000 -0.00000000000E+000  0.29355477932E-015 -0.29355477978E-015
                    0.93414398785E-001  0.00000000000E+000 -0.46500000000E+002  0.28291869410E+002  0.00000000000E+000  0.00000000000E+000 -0.64819856937E-005 -0.24828714394E-009  0.00000000000E+000 -0.00000000000E+000  0.29800658880E-015 -0.29800658665E-015
                    0.93414398785E-001  0.00000000000E+000 -0.47500000000E+002  0.28214747118E+002  0.00000000000E+000  0.00000000000E+000 -0.77324074843E-005 -0.30604512926E-009  0.00000000000E+000 -0.00000000000E+000  0.30065113387E-015 -0.30065113817E-015
                    0.93414398785E-001  0.00000000000E+000 -0.48500000000E+002  0.27931610154E+002  0.00000000000E+000  0.00000000000E+000 -0.11977426039E-004 -0.48959421343E-009  0.00000000000E+000 -0.00000000000E+000  0.30404387584E-015 -0.30404387595E-015
                    0.93414398785E-001  0.00000000000E+000 -0.49500000000E+002  0.27204973608E+002  0.00000000000E+000  0.00000000000E+000 -0.23766554967E-004 -0.10030936906E-008  0.00000000000E+000 -0.00000000000E+000  0.30679847555E-015 -0.30679847093E-015
                    0.93414398785E-001  0.00000000000E+000 -0.50500000000E+002  0.24522590077E+002  0.00000000000E+000  0.00000000000E+000 -0.67545766535E-004 -0.29446725796E-008  0.00000000000E+000 -0.00000000000E+000  0.31981381389E-015 -0.31981381892E-015
                    0.93414398785E-001  0.00000000000E+000 -0.51500000000E+002  0.29510293410E+002  0.00000000000E+000  0.00000000000E+000  0.74628415514E-005  0.33360040161E-009  0.00000000000E+000  0.00000000000E+000 -0.20795559485E-015  0.20795559772E-015
                    0.93414398785E-001  0.00000000000E+000 -0.52500000000E+002  0.47770811575E+002  0.00000000000E+000  0.00000000000E+000  0.29979303217E-003  0.11674551556E-007  0.00000000000E+000  0.00000000000E+000 -0.52769607182E-014  0.52769607120E-014
                    0.93414398785E-001  0.00000000000E+000 -0.53500000000E+002  0.20063820394E+002  0.00000000000E+000  0.00000000000E+000 -0.14658436498E-003 -0.42939420913E-008  0.00000000000E+000  0.00000000000E+000 -0.88500630000E-014  0.88500630006E-014
                    0.93414398785E-001  0.00000000000E+000 -0.54500000000E+002  0.26772025654E+002  0.00000000000E+000  0.00000000000E+000 -0.37134053303E-004 -0.76024774153E-009  0.00000000000E+000  0.00000000000E+000 -0.82400396128E-014  0.82400396113E-014
                    0.93414398785E-001  0.00000000000E+000 -0.55500000000E+002  0.28001530684E+002  0.00000000000E+000  0.00000000000E+000 -0.16575771825E-004 -0.24474047558E-009  0.00000000000E+000  0.00000000000E+000 -0.53866176870E-014  0.53866176863E-014
                    0.93414398785E-001  0.00000000000E+000 -0.56500000000E+002  0.28388811273E+002  0.00000000000E+000  0.00000000000E+000 -0.95556539853E-005 -0.11332227857E-009  0.00000000000E+000  0.00000000000E+000 -0.27360810280E-014  0.27360810289E-014
                    0.93414398785E-001  0.00000000000E+000 -0.57750000000E+002  0.28563836617E+002  0.00000000000E+000  0.00000000000E+000 -0.67250133265E-005 -0.70417345591E-010  0.00000000000E+000  0.00000000000E+000 -0.12896919881E-014  0.12896920020E-014
                    0.93414398785E-001  0.00000000000E+000 -0.59750000000E+002  0.28479850573E+002  0.00000000000E+000  0.00000000000E+000 -0.74462469916E-005 -0.74965639554E-010  0.00000000000E+000  0.00000000000E+000 -0.33765472370E-015  0.33765471603E-015
                    0.93414398785E-001  0.00000000000E+000 -0.63500000000E+002  0.95039452465E+002  0.00000000000E+000  0.00000000000E+000 -0.16089620857E-004 -0.16096704391E-009  0.00000000000E+000  0.00000000000E+000 -0.44520553312E-016  0.44520518141E-016
                    0.93414398785E-001  0.00000000000E+000 -0.68500000000E+002  0.95315559101E+002  0.00000000000E+000  0.00000000000E+000 -0.11306622504E-004 -0.11306942323E-009  0.00000000000E+000  0.00000000000E+000 -0.20503018692E-017  0.20503341808E-017
                    0.93414398785E-001  0.00000000000E+000 -0.76000000000E+002  0.15529469646E+003  0.00000000000E+000  0.00000000000E+000 -0.17412772170E-004 -0.17412945899E-009  0.00000000000E+000  0.00000000000E+000 -0.62099282543E-021  0.59252433720E-021
                    0.93414398785E-001  0.00000000000E+000 -0.86000000000E+002  0.16400321505E+003  0.00000000000E+000  0.00000000000E+000 -0.13760523526E-004 -0.13760660785E-009  0.00000000000E+000  0.00000000000E+000  0.00000000000E+000  0.44155199443E-024