        VARIABLES=                 X                 Y                 Z              HEAT      FLOW_WATER_G        FLOW_AIR_G      FLOW_WATER_L        FLOW_AIR_L     FDIFF_WATER_G       FDIFF_AIR_G     FDIFF_WATER_L       FDIFF_AIR_L
 ZONE T=" 0.3153570E+08 SEC"  I =     2419 
                    0.74998205398E-001  0.00000000000E+000 -0.25000000000E+000 -0.20305046777E-002 -0.25645010491E-011 -0.45895473392E-009 -0.85198552358E-013 -0.13769462759E-017  0.15681863301E-009 -0.15681863301E-009  0.00000000000E+000 -0.00000000000E+000
                    0.74998205398E-001  0.00000000000E+000 -0.75000000000E+000  0.23906277348E-002 -0.45056845165E-013 -0.76392410214E-011 -0.47006421790E-012 -0.75852717858E-017  0.50634491517E-010 -0.50634491517E-010  0.40578308555E-027 -0.40578306183E-027
                    0.37597140865E-001  0.00000000000E+000 -0.15000000000E+001  0.35379186699E+001  0.00000000000E+000  0.00000000000E+000  0.00000000000E+000  0.00000000000E+000 -0.13092625513E-011  0.13092625513E-011 -0.00000000000E+000  0.00000000000E+000
                    0.37597140865E-001  0.00000000000E+000 -0.27500000000E+001  0.53482335872E+001  0.00000000000E+000  0.00000000000E+000  0.00000000000E+000  0.00000000000E+000 -0.19649053833E-011  0.19649053833E-011 -0.00000000000E+000  0.00000000000E+000
                    0.37597140865E-001  0.00000000000E+000 -0.47500000000E+001  0.88558500752E+001  0.00000000000E+000  0.00000000000E+000  0.00000000000E+000  0.00000000000E+000 -0.32767131939E-011  0.32767131939E-011 -0.00000000000E+000  0.00000000000E+000
                    0.37597140865E-001  0.00000000000E+000 -0.85000000000E+001  0.17654831651E+002  0.00000000000E+000  0.00000000000E+000  0.00000000000E+000  0.00000000000E+000 -0.66806597777E-011  0.66806597777E-011 -0.00000000000E+000  0.00000000000E+000
                    0.37597140865E-001  0.00000000000E+000 -0.13500000000E+002  0.22114700588E+002  0.00000000000E+000  0.00000000000E+000  0.00000000000E+000  0.00000000000E+000 -0.67432022586E-011  0.67432022586E-011 -0.00000000000E+000  0.00000000000E+000
                    0.37597140865E-001  0.00000000000E+000 -0.18500000000E+002  0.21352380320E+002  0.00000000000E+000  0.00000000000E+000  0.00000000000E+000  0.00000000000E+000 -0.65138735300E-011  0.65138735300E-011 -0.51966931830E-020  0.51966931905E-020
                    0.37597140865E-001  0.00000000000E+000 -0.23500000000E+002  0.23973971690E+002  0.00000000000E+000  0.00000000000E+000  0.00000000000E+000  0.00000000000E+000 -0.62848035876E-011  0.62848035876E-011 -0.80758776613E-018  0.80758776682E-018
                    0.37597140865E-001  0.00000000000E+000 -0.28500000000E+002  0.23829580139E+002  0.00000000000E+000  0.00000000000E+000  0.00000000000E+000  0.00000000000E+000 -0.61255544669E-011  0.61255544669E-011 -0.17508142486E-017  0.17508142487E-017
                    0.37597140865E-001  0.00000000000E+000 -0.33500000000E+002  0.37365801028E+002  0.00000000000E+000  0.00000000000E+000  0.00000000000E+000  0.00000000000E+000 -0.60416890394E-011  0.60416890394E-011 -0.86487899755E-017  0.86487899780E-017
                    0.37597140865E-001  0.00000000000E+000 -0.38500000000E+002  0.33465269703E+002  0.00000000000E+000  0.00000000000E+000  0.00000000000E+000  0.00000000000E+000 -0.00000000000E+000  0.00000000000E+000 -0.57575428636E-015  0.57575428636E-015
                    0.37597140865E-001  0.00000000000E+000 -0.42250000000E+002  0.22190507955E+002  0.00000000000E+000  0.00000000000E+000  0.00000000000E+000  0.00000000000E+000  0.00000000000E+000 -0.00000000000E+000  0.12302649415E-015 -0.12302649416E-015
                    0.37597140865E-001  0.00000000000E+000 -0.44250000000E+002  0.13296107910E+002  0.00000000000E+000  0.00000000000E+000  0.00000000000E+000  0.00000000000E+000  0.00000000000E+000 -0.00000000000E+000  0.85254780930E-017 -0.85254780926E-017
                    0.37597140865E-001  0.00000000000E+000 -0.45500000000E+002  0.88582257908E+001  0.00000000000E+000  0.00000000000E+000  0.00000000000E+000  0.00000000000E+000 -0.00000000000E+000  0.00000000000E+000 -0.19698793954E-016  0.19698793954E-016
                    0.37597140865E-001  0.00000000000E+000 -0.46500000000E+002  0.88591372228E+001  0.00000000000E+000  0.00000000000E+000  0.00000000000E+000  0.00000000000E+000 -0.00000000000E+000  0.00000000000E+000 -0.37328676912E-016  0.37328676913E-016
                    0.37597140865E-001  0.00000000000E+000 -0.47500000000E+002  0.88490579880E+001  0.00000000000E+000  0.00000000000E+000  0.00000000000E+000  0.00000000000E+000 -0.00000000000E+000  0.00000000000E+000 -0.53490892827E-016  0.53490892827E-016
                    0.37597140865E-001  0.00000000000E+000 -0.48500000000E+002  0.88449065496E+001  0.00000000000E+000  0.00000000000E+000  0.00000000000E+000  0.00000000000E+000 -0.00000000000E+000  0.00000000000E+000 -0.69270725156E-016  0.69270725156E-016
                    0.37597140865E-001  0.00000000000E+000 -0.49500000000E+002  0.88429467641E+001  0.00000000000E+000  0.00000000000E+000  0.00000000000E+000  0.00000000000E+000 -0.00000000000E+000  0.00000000000E+000 -0.85407898890E-016  0.85407898890E-016
                    0.37597140865E-001  0.00000000000E+000 -0.50500000000E+002  0.88365340721E+001  0.00000000000E+000  0.00000000000E+000  0.00000000000E+000  0.00000000000E+000 -0.00000000000E+000  0.00000000000E+000 -0.10456326842E-015  0.10456326842E-015
                    0.37597140865E-001  0.00000000000E+000 -0.51500000000E+002  0.89429896733E+001  0.00000000000E+000  0.00000000000E+000  0.00000000000E+000  0.00000000000E+000 -0.00000000000E+000 -0.00000000000E+000 -0.66524538217E-014  0.66524538217E-014
                    0.37597140865E-001  0.00000000000E+000 -0.52500000000E+002  0.89295660290E+001  0.00000000000E+000  0.00000000000E+000  0.00000000000E+000  0.00000000000E+000 -0.00000000000E+000 -0.00000000000E+000 -0.94494724606E-014  0.94494724606E-014
                    0.37597140865E-001  0.00000000000E+000 -0.53500000000E+002  0.89444798313E+001  0.00000000000E+000  0.00000000000E+000  0.00000000000E+000  0.00000000000E+000 -0.00000000000E+000 -0.00000000000E+000 -0.10428041453E-013  0.10428041453E-013
                    0.37597140865E-001  0.00000000000E+000 -0.54500000000E+002  0.89314920276E+001  0.00000000000E+000  0.00000000000E+000  0.00000000000E+000  0.00000000000E+000 -0.00000000000E+000 -0.00000000000E+000 -0.10835569304E-013  0.10835569304E-013
                    0.37597140865E-001  0.00000000000E+000 -0.55500000000E+002  0.89291675388E+001  0.00000000000E+000  0.00000000000E+000  0.00000000000E+000  0.00000000000E+000  0.00000000000E+000  0.00000000000E+000 -0.10815997429E-013  0.10815997429E-013
                    0.37597140865E-001  0.00000000000E+000 -0.56500000000E+002  0.89429887657E+001  0.00000000000E+000  0.00000000000E+000  0.00000000000E+000  0.00000000000E+000  0.00000000000E+000  0.00000000000E+000 -0.10082413827E-013  0.10082413827E-013
                    0.37597140865E-001  0.00000000000E+000 -0.57750000000E+002  0.13394065538E+002  0.00000000000E+000  0.00000000000E+000  0.00000000000E+000  0.00000000000E+000  0.00000000000E+000  0.00000000000E+000 -0.12553335312E-013  0.12553335312E-013
                    0.37597140865E-001  0.00000000000E+000 -0.59750000000E+002  0.22357017112E+002  0.00000000000E+000  0.00000000000E+000  0.00000000000E+000  0.00000000000E+000  0.00000000000E+000  0.00000000000E+000 -0.13034027032E-013  0.13034027032E-013
                    0.37597140865E-001  0.00000000000E+000 -0.63500000000E+002  0.44570880288E+002  0.00000000000E+000  0.00000000000E+000  0.00000000000E+000  0.00000000000E+000  0.00000000000E+000  0.00000000000E+000 -0.90530478479E-014  0.90530478480E-014
                    0.37597140865E-001  0.00000000000E+000 -0.68500000000E+002  0.44510877150E+002  0.00000000000E+000  0.00000000000E+000  0.00000000000E+000  0.00000000000E+000  0.00000000000E+000  0.00000000000E+000 -0.23519304261E-014  0.23519304263E-014
                    0.37597140865E-001  0.00000000000E+000 -0.76000000000E+002  0.89141552459E+002  0.00000000000E+000  0.00000000000E+000  0.00000000000E+000  0.00000000000E+000  0.00000000000E+000  0.00000000000E+000 -0.59680869337E-015  0.59680869312E-015
                    0.37597140865E-001  0.00000000000E+000 -0.86000000000E+002  0.89314577826E+002  0.00000000000E+000  0.00000000000E+000  0.00000000000E+000  0.00000000000E+000  0.00000000000E+000  0.00000000000E+000 -0.62027160268E-016  0.62027160301E-016
                    0.37597140865E-001  0.00000000000E+000 -0.93500000000E+002  0.45571188269E+002  0.00000000000E+000  0.00000000000E+000  0.00000000000E+000  0.00000000000E+000  0.00000000000E+000  0.00000000000E+000 -0.50339408332E-017  0.50339408567E-017
                    0.37597140865E-001  0.00000000000E+000 -0.97500000000E+002  0.27359114507E+002  0.00000000000E+000  0.00000000000E+000  0.00000000000E+000  0.00000000000E+000  0.00000000000E+000  0.00000000000E+000 -0.66953341595E-018  0.66953347902E-018
                    0.37597140865E-001  0.00000000000E+000 -0.10000000000E+003  0.18195400314E+002  0.00000000000E+000  0.00000000000E+000  0.00000000000E+000  0.00000000000E+000  0.00000000000E+000  0.00000000000E+000 -0.11503675382E-018  0.11503680868E-018
                    0.74998205398E-001  0.00000000000E+000 -0.10200000000E+003 -0.16674357881E-001  0.00000000000E+000  0.00000000000E+000 -0.14286948039E-005 -0.14287108518E-010  0.00000000000E+000  0.00000000000E+000 -0.49214041238E-018  0.49214255469E-018
                    0.74998205398E-001  0.00000000000E+000 -0.10500000000E+003  0.66783254532E-003  0.00000000000E+000  0.00000000000E+000 -0.13174610950E-007 -0.13174745091E-012  0.00000000000E+000  0.00000000000E+000 -0.41707884742E-018  0.41707455579E-018
                    0.74998205398E-001  0.00000000000E+000 -0.11100000000E+003 -0.94635769357E-007  0.00000000000E+000  0.00000000000E+000 -0.46318799649E-009 -0.46319262457E-014  0.00000000000E+000  0.00000000000E+000 -0.72916864309E-019  0.72928049810E-019
                    0.74998205398E-001  0.00000000000E+000 -0.12300000000E+003 -0.23975588397E-006  0.00000000000E+000  0.00000000000E+000 -0.51674507507E-011 -0.51675022956E-016  0.00000000000E+000  0.00000000000E+000 -0.11713652649E-019  0.11720989430E-019
                    0.74998205398E-001  0.00000000000E+000 -0.14700000000E+003  0.50956611817E-006  0.00000000000E+000  0.00000000000E+000 -0.67141789242E-012 -0.67142458904E-017  0.00000000000E+000  0.00000000000E+000 -0.41221101910E-019  0.41180178632E-019
                    0.74998205398E-001  0.00000000000E+000 -0.19500000000E+003  0.77230163038E-001  0.00000000000E+000  0.00000000000E+000  0.15018159452E-005  0.15018309236E-010  0.00000000000E+000  0.00000000000E+000  0.18701153430E-019 -0.18831935475E-019
                    0.83584331342E-001  0.00000000000E+000 -0.25000000000E+000 -0.15269852523E-002 -0.33076250465E-011 -0.59140458187E-009  0.00000000000E+000  0.00000000000E+000 -0.30957762172E-011  0.30957762172E-011 -0.00000000000E+000  0.00000000000E+000
                    0.83584331342E-001  0.00000000000E+000 -0.75000000000E+000  0.12211246528E-001  0.46774463658E-012  0.79279677028E-010 -0.16626369457E-012 -0.26828830169E-017  0.24209161622E-010 -0.24209161622E-010  0.25472882951E-031 -0.25473160157E-031
                    0.83584331342E-001  0.00000000000E+000 -0.15000000000E+001  0.40670422937E+001  0.57180565196E-010  0.10066551981E-007  0.00000000000E+000  0.00000000000E+000  0.10335350774E-007 -0.10335350774E-007  0.00000000000E+000 -0.00000000000E+000
                    0.83584331342E-001  0.00000000000E+000 -0.27500000000E+001  0.61508411914E+001  0.97417497629E-010  0.15634251761E-007  0.00000000000E+000  0.00000000000E+000  0.16232096788E-007 -0.16232096788E-007  0.00000000000E+000 -0.00000000000E+000
                    0.83584331342E-001  0.00000000000E+000 -0.47500000000E+001  0.10184778425E+002  0.17951239366E-009  0.26780472544E-007  0.00000000000E+000  0.00000000000E+000  0.27812707599E-007 -0.27812707599E-007  0.00000000000E+000 -0.00000000000E+000
                    0.83584331342E-001  0.00000000000E+000 -0.85000000000E+001  0.20303017254E+002  0.35285661047E-009  0.52873833548E-007  0.00000000000E+000  0.00000000000E+000  0.54929748634E-007 -0.54929748634E-007  0.00000000000E+000 -0.00000000000E+000
                    0.83584331342E-001  0.00000000000E+000 -0.13500000000E+002  0.24705283958E+002  0.41024738081E-009  0.62859507326E-007  0.00000000000E+000  0.00000000000E+000  0.64894045971E-007 -0.64894045971E-007  0.00000000000E+000 -0.00000000000E+000
                    0.83584331342E-001  0.00000000000E+000 -0.18500000000E+002  0.23861623127E+002  0.32111227821E-009  0.49029815357E-007 -0.70884875735E-007 -0.11451608302E-011  0.50867603263E-007 -0.50867603263E-007  0.29433985062E-022 -0.29433986075E-022
                    0.83584331342E-001  0.00000000000E+000 -0.23500000000E+002  0.26460620845E+002  0.31960109999E-009  0.48747997156E-007 -0.62063656374E-007 -0.10032514297E-011  0.50501490243E-007 -0.50501490243E-007  0.79071326161E-020 -0.79071330015E-020
                    0.83584331342E-001  0.00000000000E+000 -0.28500000000E+002  0.26309393907E+002  0.30128350518E-009  0.45974351084E-007 -0.56077658061E-007 -0.90704099592E-012  0.47800698350E-007 -0.47800698350E-007  0.20072064382E-019 -0.20072064454E-019
                    0.83584331342E-001  0.00000000000E+000 -0.33500000000E+002  0.40171672484E+002  0.22571570692E-009  0.35538331577E-007 -0.78367438822E-008 -0.12687670304E-012  0.37308983200E-007 -0.37308983200E-007  0.25511969256E-017 -0.25511970227E-017
                    0.83584331342E-001  0.00000000000E+000 -0.38500000000E+002  0.36350515592E+002  0.00000000000E+000  0.00000000000E+000 -0.96156783773E-007 -0.22667022167E-011  0.00000000000E+000 -0.00000000000E+000  0.23658131902E-015 -0.23658128101E-015
                    0.83584331342E-001  0.00000000000E+000 -0.42250000000E+002  0.23793270718E+002  0.00000000000E+000  0.00000000000E+000 -0.47343139809E-007 -0.13961867961E-011  0.00000000000E+000 -0.00000000000E+000  0.40368828457E-016 -0.40368822288E-016
                    0.83584331342E-001  0.00000000000E+000 -0.44250000000E+002  0.14259230919E+002  0.00000000000E+000  0.00000000000E+000 -0.24663911123E-007 -0.80508160815E-012  0.00000000000E+000 -0.00000000000E+000  0.11138518003E-016 -0.11138524293E-016
                    0.83584331342E-001  0.00000000000E+000 -0.45500000000E+002  0.95010926454E+001  0.00000000000E+000  0.00000000000E+000 -0.15001130132E-007 -0.51921580881E-012  0.00000000000E+000 -0.00000000000E+000  0.24582576597E-017 -0.24582511000E-017
                    0.83584331342E-001  0.00000000000E+000 -0.46500000000E+002  0.95026691501E+001  0.00000000000E+000  0.00000000000E+000 -0.14389234252E-007 -0.52072488871E-012  0.00000000000E+000 -0.00000000000E+000  0.52283600990E-018 -0.52283724100E-018
                    0.83584331342E-001  0.00000000000E+000 -0.47500000000E+002  0.94911989199E+001  0.00000000000E+000  0.00000000000E+000 -0.13586982539E-007 -0.51311251012E-012  0.00000000000E+000 -0.00000000000E+000 -0.17496923820E-017  0.17496957684E-017
                    0.83584331342E-001  0.00000000000E+000 -0.48500000000E+002  0.94867226295E+001  0.00000000000E+000  0.00000000000E+000 -0.12388719275E-007 -0.48739199938E-012  0.00000000000E+000 -0.00000000000E+000 -0.38270985239E-017  0.38271031649E-017
                    0.83584331342E-001  0.00000000000E+000 -0.49500000000E+002  0.94851254850E+001  0.00000000000E+000  0.00000000000E+000 -0.61402082050E-008 -0.25124615790E-012  0.00000000000E+000 -0.00000000000E+000 -0.59054377622E-017  0.59054472325E-017
                    0.83584331342E-001  0.00000000000E+000 -0.50500000000E+002  0.94829509680E+001  0.00000000000E+000  0.00000000000E+000  0.15716807840E-008  0.66775578193E-013  0.00000000000E+000 -0.00000000000E+000 -0.47940966715E-016  0.47940972756E-016
                    0.83584331342E-001  0.00000000000E+000 -0.51500000000E+002  0.95924332721E+001  0.00000000000E+000  0.00000000000E+000 -0.31292496655E-008 -0.12788173953E-012  0.00000000000E+000  0.00000000000E+000 -0.10243712561E-013  0.10243712559E-013
                    0.83584331342E-001  0.00000000000E+000 -0.52500000000E+002  0.95770942426E+001  0.00000000000E+000  0.00000000000E+000 -0.34188450520E-008 -0.14344988538E-012  0.00000000000E+000  0.00000000000E+000 -0.61382763127E-014  0.61382763219E-014
                    0.83584331342E-001  0.00000000000E+000 -0.53500000000E+002  0.95941684500E+001  0.00000000000E+000  0.00000000000E+000 -0.35033948056E-008 -0.15052573044E-012  0.00000000000E+000  0.00000000000E+000 -0.61204863531E-014  0.61204863530E-014
                    0.83584331342E-001  0.00000000000E+000 -0.54500000000E+002  0.95795575779E+001  0.00000000000E+000  0.00000000000E+000 -0.35216477217E-008 -0.15306168689E-012  0.00000000000E+000  0.00000000000E+000 -0.57946945442E-014  0.57946945492E-014
                    0.83584331342E-001  0.00000000000E+000 -0.55500000000E+002  0.95766036801E+001  0.00000000000E+000  0.00000000000E+000 -0.35180077795E-008 -0.15089434040E-012  0.00000000000E+000  0.00000000000E+000 -0.50072540367E-014  0.50072540324E-014
                    0.83584331342E-001  0.00000000000E+000 -0.56500000000E+002  0.95923831277E+001  0.00000000000E+000  0.00000000000E+000 -0.35337942025E-008 -0.14292182058E-012  0.00000000000E+000  0.00000000000E+000 -0.30895712028E-014  0.30895711937E-014
                    0.83584331342E-001  0.00000000000E+000 -0.57750000000E+002  0.14365219729E+002  0.00000000000E+000  0.00000000000E+000 -0.52832629751E-008 -0.18477917970E-012  0.00000000000E+000  0.00000000000E+000 -0.25842404645E-014  0.25842404481E-014
                    0.83584331342E-001  0.00000000000E+000 -0.59750000000E+002  0.23979922173E+002  0.00000000000E+000  0.00000000000E+000 -0.89068302667E-008 -0.22511733971E-012  0.00000000000E+000  0.00000000000E+000 -0.33433496887E-014  0.33433496751E-014
                    0.83584331342E-001  0.00000000000E+000 -0.63500000000E+002  0.47832240893E+002  0.00000000000E+000  0.00000000000E+000 -0.17900171234E-007 -0.27145439373E-012  0.00000000000E+000  0.00000000000E+000 -0.48001199980E-014  0.48001199980E-014
                    0.83584331342E-001  0.00000000000E+000 -0.68500000000E+002  0.47761307846E+002  0.00000000000E+000  0.00000000000E+000 -0.17810699334E-007 -0.20186744114E-012  0.00000000000E+000  0.00000000000E+000 -0.13542363395E-014  0.13542363064E-014
                    0.83584331342E-001  0.00000000000E+000 -0.76000000000E+002  0.95639130389E+002  0.00000000000E+000  0.00000000000E+000 -0.35898678852E-007 -0.36497737674E-012  0.00000000000E+000  0.00000000000E+000 -0.47548144222E-015  0.47548144195E-015
                    0.83584331342E-001  0.00000000000E+000 -0.86000000000E+002  0.95835523789E+002  0.00000000000E+000  0.00000000000E+000 -0.35803378974E-007 -0.35865460658E-012  0.00000000000E+000  0.00000000000E+000 -0.54294350678E-016  0.54294330849E-016
                    0.83584331342E-001  0.00000000000E+000 -0.93500000000E+002  0.48848075516E+002  0.00000000000E+000  0.00000000000E+000 -0.18232935536E-007 -0.18238233921E-012  0.00000000000E+000  0.00000000000E+000 -0.42253161589E-017  0.42253036153E-017
                    0.83584331342E-001  0.00000000000E+000 -0.97500000000E+002  0.29326889592E+002  0.00000000000E+000  0.00000000000E+000 -0.14132895199E-007 -0.14133920004E-012  0.00000000000E+000  0.00000000000E+000 -0.57466628030E-018  0.57466196094E-018
                    0.83584331342E-001  0.00000000000E+000 -0.10000000000E+003  0.19492333760E+002  0.00000000000E+000  0.00000000000E+000 -0.52049443377E-007 -0.52050823204E-012  0.00000000000E+000  0.00000000000E+000 -0.53149713047E-018  0.53149969786E-018
                    0.83584331342E-001  0.00000000000E+000 -0.10200000000E+003 -0.64070963575E-002  0.00000000000E+000  0.00000000000E+000 -0.14575776583E-005 -0.14575956134E-010  0.00000000000E+000  0.00000000000E+000 -0.25643147109E-017  0.25643141758E-017
                    0.83584331342E-001  0.00000000000E+000 -0.10500000000E+003  0.83133852617E-003  0.00000000000E+000  0.00000000000E+000 -0.16259418886E-007 -0.16259591919E-012  0.00000000000E+000  0.00000000000E+000 -0.18495472971E-018  0.18494335861E-018
                    0.83584331342E-001  0.00000000000E+000 -0.11100000000E+003 -0.20354922560E-006  0.00000000000E+000  0.00000000000E+000 -0.57491976610E-009 -0.57492553371E-014  0.00000000000E+000  0.00000000000E+000  0.28713719411E-019 -0.28787722546E-019
                    0.83584331342E-001  0.00000000000E+000 -0.12300000000E+003 -0.29516799468E-006  0.00000000000E+000  0.00000000000E+000 -0.67474087416E-011 -0.67474760681E-016  0.00000000000E+000  0.00000000000E+000  0.66600806040E-019 -0.66662815794E-019
                    0.83584331342E-001  0.00000000000E+000 -0.14700000000E+003  0.61189288597E-006  0.00000000000E+000  0.00000000000E+000 -0.33980412357E-011 -0.33980751465E-016  0.00000000000E+000  0.00000000000E+000  0.13079477731E-018 -0.13063156561E-018
                    0.83584331342E-001  0.00000000000E+000 -0.19500000000E+003  0.95925799589E-001  0.00000000000E+000  0.00000000000E+000  0.18653708565E-005  0.18653894633E-010  0.00000000000E+000  0.00000000000E+000 -0.95433928889E-019  0.96088997643E-019
                    0.93414398785E-001  0.00000000000E+000 -0.25000000000E+000 -0.22546653629E-003 -0.31026857289E-011 -0.55476332795E-009  0.00000000000E+000  0.00000000000E+000 -0.34151211476E-012  0.34151211476E-012 -0.00000000000E+000  0.00000000000E+000
                    0.93414398785E-001  0.00000000000E+000 -0.75000000000E+000  0.23511036174E-001  0.14119071976E-011  0.23929668650E-009  0.39513833358E-011  0.63760711530E-016  0.46557824684E-010 -0.46557824684E-010  0.56342618930E-031 -0.56342296405E-031
                    0.93414398785E-001  0.00000000000E+000 -0.15000000000E+001  0.45872985540E+001  0.61336825178E-010  0.10728312518E-007  0.00000000000E+000  0.00000000000E+000  0.11265358276E-007 -0.11265358276E-007  0.00000000000E+000 -0.00000000000E+000
                    0.93414398785E-001  0.00000000000E+000 -0.27500000000E+001  0.69489387529E+001  0.10403690160E-009  0.16592746305E-007  0.00000000000E+000  0.00000000000E+000  0.17836013559E-007 -0.17836013559E-007  0.00000000000E+000 -0.00000000000E+000
                    0.93414398785E-001  0.00000000000E+000 -0.47500000000E+001  0.11521111427E+002  0.19214787013E-009  0.28494855455E-007  0.00000000000E+000  0.00000000000E+000  0.30649504685E-007 -0.30649504685E-007  0.00000000000E+000 -0.00000000000E+000
                    0.93414398785E-001  0.00000000000E+000 -0.85000000000E+001  0.22978458734E+002  0.37649448792E-009  0.56083720622E-007  0.00000000000E+000  0.00000000000E+000  0.60369672655E-007 -0.60369672655E-007  0.00000000000E+000 -0.00000000000E+000
                    0.93414398785E-001  0.00000000000E+000 -0.13500000000E+002  0.27304420292E+002  0.42943523128E-009  0.65343399014E-007  0.00000000000E+000  0.00000000000E+000  0.69556330972E-007 -0.69556330972E-007  0.00000000000E+000 -0.00000000000E+000
                    0.93414398785E-001  0.00000000000E+000 -0.18500000000E+002  0.26570794836E+002  0.35119183634E-009  0.53315075940E-007 -0.35815888220E-007 -0.57858335954E-012  0.57210280663E-007 -0.57210280663E-007  0.14392570691E-022 -0.14392571174E-022
                    0.93414398785E-001  0.00000000000E+000 -0.23500000000E+002  0.29146065640E+002  0.34462829538E-009  0.52253165513E-007 -0.74484021072E-007 -0.12039590213E-011  0.55918524418E-007 -0.55918524418E-007  0.87418403077E-020 -0.87418399322E-020
                    0.93414398785E-001  0.00000000000E+000 -0.28500000000E+002  0.28992909894E+002  0.32369838338E-009  0.49109326336E-007 -0.67501536281E-007 -0.10917608872E-011  0.52943461349E-007 -0.52943461349E-007  0.22216719128E-019 -0.22216718194E-019
                    0.93414398785E-001  0.00000000000E+000 -0.33500000000E+002  0.43226315767E+002  0.23437905348E-009  0.36645709276E-007  0.26207925718E-007  0.42424865838E-012  0.40391535192E-007 -0.40391535192E-007  0.27611350708E-017 -0.27611350153E-017
                    0.93414398785E-001  0.00000000000E+000 -0.38500000000E+002  0.39565750210E+002  0.00000000000E+000  0.00000000000E+000 -0.19611136226E-006 -0.46228046191E-011  0.00000000000E+000 -0.00000000000E+000  0.25806360967E-015 -0.25806361553E-015
                    0.93414398785E-001  0.00000000000E+000 -0.42250000000E+002  0.25566204628E+002  0.00000000000E+000  0.00000000000E+000 -0.10036024688E-006 -0.29596829207E-011  0.00000000000E+000 -0.00000000000E+000  0.16338935391E-015 -0.16338935144E-015
                    0.93414398785E-001  0.00000000000E+000 -0.44250000000E+002  0.15325829687E+002  0.00000000000E+000  0.00000000000E+000 -0.52793366560E-007 -0.17232811772E-011  0.00000000000E+000 -0.00000000000E+000  0.10287492798E-015 -0.10287492051E-015
                    0.93414398785E-001  0.00000000000E+000 -0.45500000000E+002  0.10213397710E+002  0.00000000000E+000  0.00000000000E+000 -0.32325905656E-007 -0.11188562085E-011  0.00000000000E+000 -0.00000000000E+000  0.70353937624E-016 -0.70353939316E-016
                    0.93414398785E-001  0.00000000000E+000 -0.46500000000E+002  0.10215471700E+002  0.00000000000E+000  0.00000000000E+000 -0.31032463452E-007 -0.11230183025E-011  0.00000000000E+000 -0.00000000000E+000  0.70888816278E-016 -0.70888814389E-016
                    0.93414398785E-001  0.00000000000E+000 -0.47500000000E+002  0.10203389084E+002  0.00000000000E+000  0.00000000000E+000 -0.29365431366E-007 -0.11089863396E-011  0.00000000000E+000 -0.00000000000E+000  0.71555127854E-016 -0.71555130953E-016
                    0.93414398785E-001  0.00000000000E+000 -0.48500000000E+002  0.10198998699E+002  0.00000000000E+000  0.00000000000E+000 -0.26763144322E-007 -0.10529059719E-011  0.00000000000E+000 -0.00000000000E+000  0.72184332364E-016 -0.72184334479E-016
                    0.93414398785E-001  0.00000000000E+000 -0.49500000000E+002  0.10197737983E+002  0.00000000000E+000  0.00000000000E+000 -0.12033645710E-007 -0.49239568852E-012  0.00000000000E+000 -0.00000000000E+000  0.72789171997E-016 -0.72789179496E-016
                    0.93414398785E-001  0.00000000000E+000 -0.50500000000E+002  0.10197602366E+002  0.00000000000E+000  0.00000000000E+000 -0.26940306931E-008 -0.11446055651E-012  0.00000000000E+000 -0.00000000000E+000  0.81544996407E-016 -0.81544998976E-016
                    0.93414398785E-001  0.00000000000E+000 -0.51500000000E+002  0.10311627890E+002  0.00000000000E+000  0.00000000000E+000 -0.66013386876E-008 -0.27036397687E-012  0.00000000000E+000  0.00000000000E+000 -0.44675293742E-014  0.44675293758E-014
                    0.93414398785E-001  0.00000000000E+000 -0.52500000000E+002  0.10298013428E+002  0.00000000000E+000  0.00000000000E+000 -0.72814884268E-008 -0.30591076995E-012  0.00000000000E+000  0.00000000000E+000 -0.23089799169E-014  0.23089799080E-014
                    0.93414398785E-001  0.00000000000E+000 -0.53500000000E+002  0.10313620757E+002  0.00000000000E+000  0.00000000000E+000 -0.74480831362E-008 -0.32040954978E-012  0.00000000000E+000  0.00000000000E+000 -0.21919551867E-014  0.21919551831E-014
                    0.93414398785E-001  0.00000000000E+000 -0.54500000000E+002  0.10300675835E+002  0.00000000000E+000  0.00000000000E+000 -0.75102704574E-008 -0.32679913999E-012  0.00000000000E+000  0.00000000000E+000 -0.18183332470E-014  0.18183332423E-014
                    0.93414398785E-001  0.00000000000E+000 -0.55500000000E+002  0.10297362321E+002  0.00000000000E+000  0.00000000000E+000 -0.75081281623E-008 -0.32236643894E-012  0.00000000000E+000  0.00000000000E+000 -0.96350758943E-015  0.96350758750E-015
                    0.93414398785E-001  0.00000000000E+000 -0.56500000000E+002  0.10311509263E+002  0.00000000000E+000  0.00000000000E+000 -0.75168760047E-008 -0.30421732271E-012  0.00000000000E+000  0.00000000000E+000  0.77130032064E-015 -0.77130031211E-015
                    0.93414398785E-001  0.00000000000E+000 -0.57750000000E+002  0.15446394650E+002  0.00000000000E+000  0.00000000000E+000 -0.11271184134E-007 -0.39437275136E-012  0.00000000000E+000  0.00000000000E+000  0.19514488836E-014 -0.19514488836E-014
                    0.93414398785E-001  0.00000000000E+000 -0.59750000000E+002  0.25777528766E+002  0.00000000000E+000  0.00000000000E+000 -0.18960915575E-007 -0.47945234649E-012  0.00000000000E+000  0.00000000000E+000  0.54781563941E-015 -0.54781563483E-015
                    0.93414398785E-001  0.00000000000E+000 -0.63500000000E+002  0.51450464282E+002  0.00000000000E+000  0.00000000000E+000 -0.38116660533E-007 -0.57835466346E-012  0.00000000000E+000  0.00000000000E+000 -0.32125855120E-014  0.32125854971E-014
                    0.93414398785E-001  0.00000000000E+000 -0.68500000000E+002  0.51379885726E+002  0.00000000000E+000  0.00000000000E+000 -0.37982505029E-007 -0.43058550582E-012  0.00000000000E+000  0.00000000000E+000 -0.11072090656E-014  0.11072090868E-014
                    0.93414398785E-001  0.00000000000E+000 -0.76000000000E+002  0.10286768766E+003  0.00000000000E+000  0.00000000000E+000 -0.76526241950E-007 -0.77806445920E-012  0.00000000000E+000  0.00000000000E+000 -0.47564304442E-015  0.47564314689E-015
                    0.93414398785E-001  0.00000000000E+000 -0.86000000000E+002  0.10309415389E+003  0.00000000000E+000  0.00000000000E+000 -0.76280764097E-007 -0.76413393168E-012  0.00000000000E+000  0.00000000000E+000 -0.59187261698E-016  0.59187264843E-016