 VARIABLES       =                 X                 Y                 Z              ROCK              PRES              TEMP             SAT_G             SAT_L         X_WATER_G           X_AIR_G         X_WATER_L           X_AIR_L             REL_G             REL_L           PCAP_GL             DEN_G             DEN_L               POR
 ZONE T=" 0.7233000E+05 SEC"  I =        9 J =        0 K =       30
                    0.37500000000E-001  0.00000000000E+000 -0.15000000000E+001                   2  0.99925498282E+005  0.12055835375E+002  0.49985172610E+000  0.50014827390E+000  0.88101554396E-002  0.99118984456E+000  0.99998416357E+000  0.15836429873E-004  0.18731470915E+000  0.61185904198E-001  0.00000000000E+000  0.12138463921E+001  0.99959486114E+003  0.10000114733E-002
                    0.37500000000E-001  0.00000000000E+000 -0.27500000000E+001                   2  0.10074593170E+006  0.13113864143E+002  0.49972666864E+000  0.50027333136E+000  0.93702411964E-002  0.99062975880E+000  0.99998404795E+000  0.15952053218E-004  0.18715851091E+000  0.61245649740E-001  0.00000000000E+000  0.12188784815E+001  0.99947077717E+003  0.10000213784E-002
                    0.37500000000E-001  0.00000000000E+000 -0.47500000000E+001                   2  0.10159489328E+006  0.13982416834E+002  0.49982093867E+000  0.50017906133E+000  0.98358028983E-002  0.99016419710E+000  0.99998392559E+000  0.16074414339E-004  0.18727624848E+000  0.61200608935E-001  0.00000000000E+000  0.12250884715E+001  0.99935810903E+003  0.10000277799E-002
                    0.37500000000E-001  0.00000000000E+000 -0.85000000000E+001                   2  0.10267331133E+006  0.14734307867E+002  0.49981604050E+000  0.50018395950E+000  0.10220445901E-001  0.98977955410E+000  0.99998376502E+000  0.16234976310E-004  0.18727012994E+000  0.61202948632E-001  0.00000000000E+000  0.12345735099E+001  0.99925299793E+003  0.10000369756E-002
                    0.37500000000E-001  0.00000000000E+000 -0.13500000000E+002                   2  0.10337741486E+006  0.14300469259E+002  0.49985423079E+000  0.50014576921E+000  0.98678844719E-002  0.99013211553E+000  0.99998364440E+000  0.16355601622E-004  0.18731783828E+000  0.61184708013E-001  0.00000000000E+000  0.12451800110E+001  0.99931512886E+003  0.10000603643E-002
                    0.37500000000E-001  0.00000000000E+000 -0.18500000000E+002                   2  0.10442871388E+006  0.14576513135E+002  0.49994958651E+000  0.50005041349E+000  0.99450773396E-002  0.99005492266E+000  0.99998348012E+000  0.16519875836E-004  0.18743698909E+000  0.61139180426E-001  0.00000000000E+000  0.12565779120E+001  0.99927656284E+003  0.10000802528E-002
                    0.37500000000E-001  0.00000000000E+000 -0.23500000000E+002                   2  0.10775358699E+006  0.14633584269E+002  0.50016028413E+000  0.49983971587E+000  0.96722352506E-002  0.99032776475E+000  0.99998294666E+000  0.17053344887E-004  0.18770041538E+000  0.61038667130E-001  0.00000000000E+000  0.12965417417E+001  0.99926991036E+003  0.10001042998E-002
                    0.37500000000E-001  0.00000000000E+000 -0.28500000000E+002                   2  0.12961233130E+006  0.14962227227E+002  0.50044555377E+000  0.49955444623E+000  0.82061412176E-002  0.99179385878E+000  0.99997943873E+000  0.20561270690E-004  0.18805740748E+000  0.60902764059E-001  0.00000000000E+000  0.15591551091E+001  0.99923205580E+003  0.10002917016E-002
                    0.37500000000E-001  0.00000000000E+000 -0.33500000000E+002                   2  0.13508648327E+006  0.14956393375E+002  0.50047408950E+000  0.49952591050E+000  0.78690412331E-002  0.99213095877E+000  0.99997855869E+000  0.21441307423E-004  0.18809313866E+000  0.60889181263E-001  0.00000000000E+000  0.16253690536E+001  0.99923545232E+003  0.10003522906E-002
                    0.37500000000E-001  0.00000000000E+000 -0.38500000000E+002                   2  0.17306259740E+006  0.15046463209E+002  0.50099002210E+000  0.49900997790E+000  0.61717159066E-002  0.99382828409E+000  0.99997245589E+000  0.27544114418E-004  0.18873982484E+000  0.60643967545E-001  0.00000000000E+000  0.20837827407E+001  0.99923964011E+003  0.10007362889E-002
                    0.37500000000E-001  0.00000000000E+000 -0.42250000000E+002                   2  0.19479048965E+006  0.15526420411E+002  0.50128654897E+000  0.49871345103E+000  0.56533455770E-002  0.99434665442E+000  0.99996897189E+000  0.31028106318E-004  0.18911206561E+000  0.60503347416E-001  0.00000000000E+000  0.23422342998E+001  0.99917666992E+003  0.10009488954E-002
                    0.37500000000E-001  0.00000000000E+000 -0.44250000000E+002                   2  0.20324834978E+006  0.14996815570E+002  0.50156887661E+000  0.49843112339E+000  0.52353715998E-002  0.99476462840E+000  0.99996760288E+000  0.32397120207E-004  0.18946686459E+000  0.60369673570E-001  0.00000000000E+000  0.24490444476E+001  0.99926099449E+003  0.10010404902E-002
                    0.37500000000E-001  0.00000000000E+000 -0.45500000000E+002                   2  0.20851249387E+006  0.14277449856E+002  0.50182543326E+000  0.49817456674E+000  0.48703510838E-002  0.99512964892E+000  0.99996674428E+000  0.33255718480E-004  0.18978960140E+000  0.60248381272E-001  0.00000000000E+000  0.25193179851E+001  0.99936712323E+003  0.10011021870E-002
                    0.37500000000E-001  0.00000000000E+000 -0.46500000000E+002                   2  0.21337956438E+006  0.14222216075E+002  0.50199520171E+000  0.49800479829E+000  0.47418866704E-002  0.99525811333E+000  0.99996596101E+000  0.34038994218E-004  0.19000333217E+000  0.60168213850E-001  0.00000000000E+000  0.25788192502E+001  0.99937707617E+003  0.10011567847E-002
                    0.37500000000E-001  0.00000000000E+000 -0.47500000000E+002                   2  0.21857347244E+006  0.14246345178E+002  0.50219165036E+000  0.49780834964E+000  0.46361558083E-002  0.99536384419E+000  0.99996512654E+000  0.34873464997E-004  0.19025082070E+000  0.60075540999E-001  0.00000000000E+000  0.26415377617E+001  0.99937612923E+003  0.10012085855E-002
                    0.37500000000E-001  0.00000000000E+000 -0.48500000000E+002                   2  0.22382263262E+006  0.14284314530E+002  0.50237666535E+000  0.49762333465E+000  0.45383121848E-002  0.99546168782E+000  0.99996428342E+000  0.35716581729E-004  0.19048407037E+000  0.59988353431E-001  0.00000000000E+000  0.27047783859E+001  0.99937326686E+003  0.10012645849E-002
                    0.37500000000E-001  0.00000000000E+000 -0.49500000000E+002                   2  0.22893219059E+006  0.14322326283E+002  0.50255690920E+000  0.49744309080E+000  0.44477172606E-002  0.99555228274E+000  0.99996346274E+000  0.36537255937E-004  0.19071145933E+000  0.59903499594E-001  0.00000000000E+000  0.27663104003E+001  0.99937031490E+003  0.10013184847E-002
                    0.37500000000E-001  0.00000000000E+000 -0.50500000000E+002                   2  0.23309026749E+006  0.14356368094E+002  0.50272570705E+000  0.49727429295E+000  0.43778314434E-002  0.99562216856E+000  0.99996279495E+000  0.37205053283E-004  0.19092454652E+000  0.59824110561E-001  0.00000000000E+000  0.28163401851E+001  0.99936746143E+003  0.10013624848E-002
                    0.37500000000E-001  0.00000000000E+000 -0.51500000000E+002                   2  0.13385626106E+006  0.14274629744E+002  0.29899442463E-002  0.99701005575E+000  0.75978297299E-002  0.99240217027E+000  0.99997874468E+000  0.21255322360E-004  0.00000000000E+000  0.97367035397E+000  0.00000000000E+000  0.16146507548E+001  0.99933287843E+003  0.10001894850E-002
                    0.37500000000E-001  0.00000000000E+000 -0.52500000000E+002                   2  0.77437380044E+005  0.14216659656E+002  0.25798660207E-002  0.99742013398E+000  0.13127815951E-001  0.98687218405E+000  0.99998781269E+000  0.12187306851E-004  0.00000000000E+000  0.97662311410E+000  0.00000000000E+000  0.93117554055E+000  0.99931475632E+003  0.99950644170E-003
                    0.37500000000E-001  0.00000000000E+000 -0.53500000000E+002                   2  0.58803300679E+005  0.14216526588E+002  0.25732095029E-002  0.99742679050E+000  0.17331417572E-001  0.98266858243E+000  0.99999080802E+000  0.91919795085E-005  0.00000000000E+000  0.97667177337E+000  0.00000000000E+000  0.70532033940E+000  0.99930612525E+003  0.99921610250E-003
                    0.37500000000E-001  0.00000000000E+000 -0.54500000000E+002                   2  0.53916888268E+005  0.14243594505E+002  0.27677504698E-002  0.99723224953E+000  0.18953759005E-001  0.98104624100E+000  0.99999159394E+000  0.84060564997E-005  0.00000000000E+000  0.97525958382E+000  0.00000000000E+000  0.64602038690E+000  0.99930010098E+003  0.99906604291E-003
                    0.37500000000E-001  0.00000000000E+000 -0.55500000000E+002                   2  0.52588072290E+005  0.14279548368E+002  0.29613528908E-002  0.99703864711E+000  0.19484210612E-001  0.98051578939E+000  0.99999180815E+000  0.81918479121E-005  0.00000000000E+000  0.97387350965E+000  0.00000000000E+000  0.62981981877E+000  0.99929448094E+003  0.99895463241E-003
                    0.37500000000E-001  0.00000000000E+000 -0.56500000000E+002                   2  0.51911227043E+005  0.14323508826E+002  0.31568619860E-002  0.99684313801E+000  0.19798271939E-001  0.98020172806E+000  0.99999191770E+000  0.80823032396E-005  0.00000000000E+000  0.97249184572E+000  0.00000000000E+000  0.62150163427E+000  0.99928802731E+003  0.99884811208E-003
                    0.37500000000E-001  0.00000000000E+000 -0.57750000000E+002                   2  0.51343932186E+005  0.15176840121E+002  0.33809430474E-002  0.99661905695E+000  0.21167994460E-001  0.97883200554E+000  0.99999202373E+000  0.79762741971E-005  0.00000000000E+000  0.97092892952E+000  0.00000000000E+000  0.61238881793E+000  0.99916381194E+003  0.99881633351E-003
                    0.37500000000E-001  0.00000000000E+000 -0.59750000000E+002                   2  0.51297089694E+005  0.15994324257E+002  0.33713428007E-002  0.99662865720E+000  0.22343517640E-001  0.97765648236E+000  0.99999204616E+000  0.79538421136E-005  0.00000000000E+000  0.97099545834E+000  0.00000000000E+000  0.60967223425E+000  0.99903665216E+003  0.99865009606E-003
                    0.37500000000E-001  0.00000000000E+000 -0.63500000000E+002                   2  0.50992085753E+005  0.15379936095E+002  0.33961903388E-002  0.99660380966E+000  0.21599754512E-001  0.97840024549E+000  0.99999208392E+000  0.79160780576E-005  0.00000000000E+000  0.97082334429E+000  0.00000000000E+000  0.60760737437E+000  0.99913282278E+003  0.99828955399E-003
                    0.37500000000E-001  0.00000000000E+000 -0.68500000000E+002                   2  0.51476246759E+005  0.15461868705E+002  0.33389809654E-002  0.99666101903E+000  0.21508296892E-001  0.97849170311E+000  0.99999200758E+000  0.79924248350E-005  0.00000000000E+000  0.97122000098E+000  0.00000000000E+000  0.61323599632E+000  0.99912046762E+003  0.99780631350E-003
                    0.37500000000E-001  0.00000000000E+000 -0.76000000000E+002                   2  0.52896906452E+005  0.15935261426E+002  0.27915178009E-002  0.99720848220E+000  0.21576173875E-001  0.97842382613E+000  0.99999178790E+000  0.82121044830E-005  0.00000000000E+000  0.97508841897E+000  0.00000000000E+000  0.62910327392E+000  0.99904684683E+003  0.99708768548E-003
                    0.37500000000E-001  0.00000000000E+000 -0.86000000000E+002                   2  0.54992264323E+005  0.16038467893E+002  0.21592006495E-002  0.99784079935E+000  0.20882796429E-001  0.97911720357E+000  0.99999145300E+000  0.85469985974E-005  0.00000000000E+000  0.97975008256E+000  0.00000000000E+000  0.65406134809E+000  0.99903125957E+003  0.99613156656E-003
                    0.37500000000E-001  0.00000000000E+000 -0.93500000000E+002                   2  0.56381584267E+005  0.16212570259E+002  0.18139554324E-002  0.99818604457E+000  0.20592380584E-001  0.97940761942E+000  0.99999123295E+000  0.87670535158E-005  0.00000000000E+000  0.98240634757E+000  0.00000000000E+000  0.67029868322E+000  0.99900368531E+003  0.99541444711E-003
                    0.37500000000E-001  0.00000000000E+000 -0.97500000000E+002                   2  0.55898151132E+005  0.15223537397E+002  0.18578244442E-002  0.99814217556E+000  0.19482186542E-001  0.98051781346E+000  0.99999129249E+000  0.87075091578E-005  0.00000000000E+000  0.98206369707E+000  0.00000000000E+000  0.66727303891E+000  0.99915887435E+003  0.99501211711E-003
                    0.37500000000E-001  0.00000000000E+000 -0.10000000000E+003                   2  0.54626558339E+005  0.13930480540E+002  0.22268965325E-002  0.99777310347E+000  0.18324338236E-001  0.98167566176E+000  0.99999147462E+000  0.85253756224E-005  0.00000000000E+000  0.97923934029E+000  0.00000000000E+000  0.65548436206E+000  0.99934331406E+003  0.99472957716E-003
                    0.37500000000E-001  0.00000000000E+000 -0.10200000000E+003                   1  0.74211397080E+006  0.17616372195E+002  0.00000000000E+000  0.10000000000E+001  0.00000000000E+000  0.00000000000E+000  0.99999000000E+000  0.99999997474E-005  0.00000000000E+000  0.10000000000E+001  0.00000000000E+000  0.88805732936E+001  0.99907709430E+003  0.30042324247E+000
                    0.37500000000E-001  0.00000000000E+000 -0.10500000000E+003                   1  0.77089283714E+006  0.17743632313E+002  0.00000000000E+000  0.10000000000E+001  0.00000000000E+000  0.00000000000E+000  0.99999000000E+000  0.99999997474E-005  0.00000000000E+000  0.10000000000E+001  0.00000000000E+000  0.92212019336E+001  0.99906716972E+003  0.30042131319E+000
                    0.37500000000E-001  0.00000000000E+000 -0.11100000000E+003                   1  0.82867620395E+006  0.17864447769E+002  0.00000000000E+000  0.10000000000E+001  0.00000000000E+000  0.00000000000E+000  0.99999000000E+000  0.99999997474E-005  0.00000000000E+000  0.10000000000E+001  0.00000000000E+000  0.99088920100E+001  0.99907149001E+003  0.30041853167E+000
                    0.37500000000E-001  0.00000000000E+000 -0.12300000000E+003                   1  0.94481370912E+006  0.18114032755E+002  0.00000000000E+000  0.10000000000E+001  0.00000000000E+000  0.00000000000E+000  0.99999000000E+000  0.99999997474E-005  0.00000000000E+000  0.10000000000E+001  0.00000000000E+000  0.11289071917E+002  0.99907833205E+003  0.30041448244E+000
                    0.37500000000E-001  0.00000000000E+000 -0.14700000000E+003                   1  0.11788447712E+007  0.18616101828E+002  0.00000000000E+000  0.10000000000E+001  0.00000000000E+000  0.00000000000E+000  0.99999000000E+000  0.99999997474E-005  0.00000000000E+000  0.10000000000E+001  0.00000000000E+000  0.14063163861E+002  0.99908983635E+003  0.30041001375E+000
                    0.37500000000E-001  0.00000000000E+000 -0.19500000000E+003                   3  0.17239717467E+007  0.19625000000E+002  0.00000000000E+000  0.10000000000E+001  0.00000000000E+000  0.00000000000E+000  0.99999000000E+000  0.99999997474E-005  0.00000000000E+000  0.10000000000E+001  0.00000000000E+000  0.20499272524E+002  0.99913720004E+003  0.30063500999E+000
                    0.37500000000E-001  0.00000000000E+000 -0.50000000000E-005                   5  0.10132500000E+006  0.15000000000E+002  0.10000000000E+001  0.00000000000E+000  0.52499771120E-002  0.99475002289E+000  0.00000000000E+000  0.00000000000E+000  0.10000000000E+001  0.00000000000E+000  0.00000000000E+000  0.12208885817E+001  0.99921336741E+003  0.99000001000E+000
                    0.37500000000E-001  0.00000000000E+000 -0.25000000000E+000                   4  0.10165665288E+006  0.15018119753E+002  0.89206030393E+000  0.10793969607E+000  0.10515209626E-001  0.98948479037E+000  0.99998393342E+000  0.16066584144E-004  0.98015270524E+000  0.43964196364E-006 -0.17542933645E+005  0.12209285111E+001  0.99921082891E+003  0.30000090985E+000
                    0.37500000000E-001  0.00000000000E+000 -0.75000000000E+000                   4  0.10152866191E+006  0.15138271333E+002  0.89610576664E+000  0.10389423336E+000  0.10610847760E-001  0.98938915224E+000  0.99998395612E+000  0.16043881992E-004  0.99026464673E+000  0.51857884074E-007 -0.19005708130E+005  0.12188129927E+001  0.99919281713E+003  0.30000242983E+000
                    0.79290000000E-001  0.00000000000E+000 -0.25000000000E+000                   1  0.10137017615E+006  0.15020364974E+002  0.89664091671E+000  0.10335908329E+000  0.10546651093E-001  0.98945334891E+000  0.99998397950E+000  0.16020495074E-004  0.99160243951E+000  0.33280889052E-007 -0.19214388227E+005  0.12174552989E+001  0.99921036253E+003  0.30000116983E+000
                    0.79290000000E-001  0.00000000000E+000 -0.75000000000E+000                   1  0.10146055890E+006  0.15117160532E+002  0.89569482418E+000  0.10430517582E+000  0.10603505069E-001  0.98939649493E+000  0.99998396669E+000  0.16033309842E-004  0.98923737130E+000  0.70070375039E-007 -0.18848007304E+005  0.12180900075E+001  0.99919595280E+003  0.30000164947E+000
                    0.79290000000E-001  0.00000000000E+000 -0.15000000000E+001                   1  0.10159619180E+006  0.12289996623E+002  0.89651665364E+000  0.10348334636E+000  0.87999262453E-002  0.99120007375E+000  0.99998389853E+000  0.16101471213E-004  0.99129179884E+000  0.37113020791E-007 -0.19165593657E+005  0.12331364944E+001  0.99956937098E+003  0.30000337893E+000
                    0.79290000000E-001  0.00000000000E+000 -0.27500000000E+001                   1  0.10182249660E+006  0.13269294810E+002  0.89437822776E+000  0.10562177224E+000  0.93657954174E-002  0.99063420458E+000  0.99998387737E+000  0.16122631878E-004  0.98594626100E+000  0.15603599995E-006 -0.18357127983E+005  0.12312382395E+001  0.99945175880E+003  0.30000477807E+000
                    0.79290000000E-001  0.00000000000E+000 -0.47500000000E+001                   1  0.10218472659E+006  0.14075647583E+002  0.89254171377E+000  0.10745828623E+000  0.98384128596E-002  0.99016158714E+000  0.99998383233E+000  0.16167670523E-004  0.98135589747E+000  0.36440720118E-006 -0.17707033120E+005  0.12317991891E+001  0.99934567413E+003  0.30000614665E+000
                    0.79290000000E-001  0.00000000000E+000 -0.85000000000E+001                   1  0.10286453286E+006  0.14781104938E+002  0.88954020191E+000  0.11045979809E+000  0.10232383792E-001  0.98976761621E+000  0.99998373510E+000  0.16264899965E-004  0.97385494578E+000  0.10054355591E-005 -0.16723697820E+005  0.12366629322E+001  0.99924627960E+003  0.30000909403E+000
                    0.79290000000E-001  0.00000000000E+000 -0.13500000000E+002                   1  0.10377718775E+006  0.14387007264E+002  0.88200617609E+000  0.11799382391E+000  0.98852192025E-002  0.99011478080E+000  0.99998358161E+000  0.16418392298E-004  0.95503794210E+000  0.51224481661E-005 -0.14618157841E+005  0.12496060882E+001  0.99930317407E+003  0.30001204051E+000
                    0.79290000000E-001  0.00000000000E+000 -0.18500000000E+002                   1  0.10471854652E+006  0.14659119032E+002  0.86036648785E+000  0.13963351215E+000  0.99707903989E-002  0.99002920960E+000  0.99998343496E+000  0.16565039062E-004  0.90115338667E+000  0.54878830900E-004 -0.10499801852E+005  0.12596843281E+001  0.99926482514E+003  0.30001427692E+000
                    0.79290000000E-001  0.00000000000E+000 -0.23500000000E+002                   1  0.10758493178E+006  0.14711895337E+002  0.48026335448E+000  0.51973664552E+000  0.97369054396E-002  0.99026309456E+000  0.99998297512E+000  0.17024878861E-004  0.16374179572E+000  0.71053901359E-001 -0.98901851058E+003  0.12941098762E+001  0.99925852345E+003  0.30001947150E+000
                    0.79290000000E-001  0.00000000000E+000 -0.28500000000E+002                   1  0.12098819658E+006  0.15030578656E+002  0.20406910652E+000  0.79593089348E+000  0.88332222649E-002  0.99116677774E+000  0.99998082621E+000  0.19173791129E-004  0.41163951815E-002  0.36481337748E+000 -0.35116250561E+003  0.14545169766E+001  0.99921791880E+003  0.30005821884E+000
                    0.79290000000E-001  0.00000000000E+000 -0.33500000000E+002                   1  0.14850913605E+006  0.15026259886E+002  0.89886332036E-001  0.91011366796E+000  0.71871548637E-002  0.99281284514E+000  0.99997640232E+000  0.23597676945E-004  0.00000000000E+000  0.62658389004E+000 -0.18444228640E+003  0.17871731770E+001  0.99923129300E+003  0.30014153443E+000
                    0.79290000000E-001  0.00000000000E+000 -0.38500000000E+002                   1  0.18111051862E+006  0.15116073714E+002  0.79491356065E-001  0.92050864393E+000  0.59230698800E-002  0.99407693012E+000  0.99997116348E+000  0.28836524746E-004  0.00000000000E+000  0.65777700419E+000 -0.16918416590E+003  0.21804856160E+001  0.99923294887E+003  0.30023732501E+000
                    0.79290000000E-001  0.00000000000E+000 -0.42250000000E+002                   1  0.20760415094E+006  0.15570988122E+002  0.64963287633E-001  0.93503671237E+000  0.53185246544E-002  0.99468147535E+000  0.99996691301E+000  0.33086990564E-004  0.00000000000E+000  0.70431679960E+000 -0.14731480604E+003  0.24964301220E+001  0.99917566112E+003  0.30031931767E+000
                    0.79290000000E-001  0.00000000000E+000 -0.44250000000E+002                   1  0.22251038705E+006  0.15070453309E+002  0.55356576744E-001  0.94464342326E+000  0.48036454081E-002  0.99519635459E+000  0.99996450796E+000  0.35492035163E-004  0.00000000000E+000  0.73725730127E+000 -0.13232904749E+003  0.26811570654E+001  0.99925892642E+003  0.30036323195E+000
                    0.79290000000E-001  0.00000000000E+000 -0.45500000000E+002                   1  0.23211572703E+006  0.14388005446E+002  0.50162149583E-001  0.94983785042E+000  0.44052996027E-002  0.99559470040E+000  0.99996295213E+000  0.37047865763E-004  0.00000000000E+000  0.75589264969E+000 -0.12398261887E+003  0.28042100681E+001  0.99936255216E+003  0.30039213074E+000
                    0.79290000000E-001  0.00000000000E+000 -0.46500000000E+002                   1  0.23993694462E+006  0.14332250711E+002  0.47330407260E-001  0.95266959274E+000  0.42459326807E-002  0.99575406732E+000  0.99996169399E+000  0.38306007664E-004  0.00000000000E+000  0.76631994524E+000 -0.11934370771E+003  0.28995403331E+001  0.99937402642E+003  0.30041430663E+000
                    0.79290000000E-001  0.00000000000E+000 -0.47500000000E+002                   1  0.24787341599E+006  0.14356453325E+002  0.45397553735E-001  0.95460244627E+000  0.41161093663E-002  0.99588389063E+000  0.99996041869E+000  0.39581314919E-004  0.00000000000E+000  0.77355273846E+000 -0.11613654438E+003  0.29954323158E+001  0.99937430523E+003  0.30043907957E+000
                    0.79290000000E-001  0.00000000000E+000 -0.48500000000E+002                   1  0.25594447558E+006  0.14394263541E+002  0.43556718290E-001  0.95644328171E+000  0.39957902748E-002  0.99600420973E+000  0.99995912198E+000  0.40878022445E-004  0.00000000000E+000  0.78053213522E+000 -0.11304852263E+003  0.30927855410E+001  0.99937271796E+003  0.30046301312E+000
                    0.79290000000E-001  0.00000000000E+000 -0.49500000000E+002                   1  0.26422016670E+006  0.14432225116E+002  0.41856385581E-001  0.95814361442E+000  0.38798878179E-002  0.99612011218E+000  0.99995779238E+000  0.42207617381E-004  0.00000000000E+000  0.78706067413E+000 -0.11016490448E+003  0.31925897660E+001  0.99937118499E+003  0.30048742153E+000
                    0.79290000000E-001  0.00000000000E+000 -0.50500000000E+002                   1  0.27286337936E+006  0.14465707042E+002  0.26837578389E-001  0.97316242161E+000  0.37648753871E-002  0.99623512461E+000  0.99995640364E+000  0.43596361909E-004  0.00000000000E+000  0.84870402295E+000 -0.82955718640E+002  0.32968717739E+001  0.99937043994E+003  0.30051302955E+000
                    0.79290000000E-001  0.00000000000E+000 -0.51500000000E+002                   1  0.28250155641E+006  0.14383291122E+002  0.00000000000E+000  0.10000000000E+001  0.00000000000E+000  0.00000000000E+000  0.99995529387E+000  0.44706129582E-004  0.00000000000E+000  0.10000000000E+001  0.00000000000E+000  0.34146091883E+001  0.99938658062E+003  0.30052827350E+000
                    0.79290000000E-001  0.00000000000E+000 -0.52500000000E+002                   1  0.29214833280E+006  0.14325622005E+002  0.00000000000E+000  0.10000000000E+001  0.00000000000E+000  0.00000000000E+000  0.99996114681E+000  0.38853186042E-004  0.00000000000E+000  0.10000000000E+001  0.00000000000E+000  0.35322021104E+001  0.99939917208E+003  0.30052850090E+000
                    0.79290000000E-001  0.00000000000E+000 -0.53500000000E+002                   1  0.29824938084E+006  0.14324984401E+002  0.00000000000E+000  0.10000000000E+001  0.00000000000E+000  0.00000000000E+000  0.99997078887E+000  0.29211128916E-004  0.00000000000E+000  0.10000000000E+001  0.00000000000E+000  0.36061305438E+001  0.99940209108E+003  0.30051638039E+000
                    0.79290000000E-001  0.00000000000E+000 -0.54500000000E+002                   1  0.30608761709E+006  0.14352172522E+002  0.00000000000E+000  0.10000000000E+001  0.00000000000E+000  0.00000000000E+000  0.99997960753E+000  0.20392466241E-004  0.00000000000E+000  0.10000000000E+001  0.00000000000E+000  0.37007354836E+001  0.99940190333E+003  0.30050960621E+000
                    0.79290000000E-001  0.00000000000E+000 -0.55500000000E+002                   1  0.31436798394E+006  0.14388019271E+002  0.00000000000E+000  0.10000000000E+001  0.00000000000E+000  0.00000000000E+000  0.99998528890E+000  0.14711096950E-004  0.00000000000E+000  0.10000000000E+001  0.00000000000E+000  0.38005597140E+001  0.99940068796E+003  0.30050572739E+000
                    0.79290000000E-001  0.00000000000E+000 -0.56500000000E+002                   1  0.32284648987E+006  0.14431814512E+002  0.00000000000E+000  0.10000000000E+001  0.00000000000E+000  0.00000000000E+000  0.99998816843E+000  0.11831567780E-004  0.00000000000E+000  0.10000000000E+001  0.00000000000E+000  0.39026471267E+001  0.99939842043E+003  0.30050191529E+000
                    0.79290000000E-001  0.00000000000E+000 -0.57750000000E+002                   1  0.33358733460E+006  0.15248640165E+002  0.00000000000E+000  0.10000000000E+001  0.00000000000E+000  0.00000000000E+000  0.99998953791E+000  0.10462093472E-004  0.00000000000E+000  0.10000000000E+001  0.00000000000E+000  0.40209086628E+001  0.99928341076E+003  0.30049713969E+000
                    0.79290000000E-001  0.00000000000E+000 -0.59750000000E+002                   1  0.35097416211E+006  0.16037514817E+002  0.00000000000E+000  0.10000000000E+001  0.00000000000E+000  0.00000000000E+000  0.99998993396E+000  0.10066040457E-004  0.00000000000E+000  0.10000000000E+001  0.00000000000E+000  0.42189438586E+001  0.99916778438E+003  0.30049143766E+000
                    0.79290000000E-001  0.00000000000E+000 -0.63500000000E+002                   1  0.38396846930E+006  0.15452197698E+002  0.00000000000E+000  0.10000000000E+001  0.00000000000E+000  0.00000000000E+000  0.99998999582E+000  0.10004180035E-004  0.00000000000E+000  0.10000000000E+001  0.00000000000E+000  0.46260026244E+001  0.99927548886E+003  0.30047916727E+000
                    0.79290000000E-001  0.00000000000E+000 -0.68500000000E+002                   1  0.42881230445E+006  0.15533968764E+002  0.00000000000E+000  0.10000000000E+001  0.00000000000E+000  0.00000000000E+000  0.99998999984E+000  0.10000163679E-004  0.00000000000E+000  0.10000000000E+001  0.00000000000E+000  0.51657027844E+001  0.99928350714E+003  0.30046692561E+000
                    0.79290000000E-001  0.00000000000E+000 -0.76000000000E+002                   1  0.49705484622E+006  0.15994087248E+002  0.00000000000E+000  0.10000000000E+001  0.00000000000E+000  0.00000000000E+000  0.99999000000E+000  0.99999997294E-005  0.00000000000E+000  0.10000000000E+001  0.00000000000E+000  0.59792968977E+001  0.99924207429E+003  0.30045182786E+000
                    0.79290000000E-001  0.00000000000E+000 -0.86000000000E+002                   1  0.59007769595E+006  0.16100349533E+002  0.00000000000E+000  0.10000000000E+001  0.00000000000E+000  0.00000000000E+000  0.99999000000E+000  0.99999997163E-005  0.00000000000E+000  0.10000000000E+001  0.00000000000E+000  0.70971911841E+001  0.99926769247E+003  0.30043693680E+000
                    0.79290000000E-001  0.00000000000E+000 -0.93500000000E+002                   1  0.66100910338E+006  0.16271527445E+002  0.00000000000E+000  0.10000000000E+001  0.00000000000E+000  0.00000000000E+000  0.99999000000E+000  0.99999997209E-005  0.00000000000E+000  0.10000000000E+001  0.00000000000E+000  0.79465273142E+001  0.99927229510E+003  0.30042973423E+000
                    0.79290000000E-001  0.00000000000E+000 -0.97500000000E+002                   1  0.69908740446E+006  0.15322488969E+002  0.00000000000E+000  0.10000000000E+001  0.00000000000E+000  0.00000000000E+000  0.99999000000E+000  0.99999997196E-005  0.00000000000E+000  0.10000000000E+001  0.00000000000E+000  0.84329274074E+001  0.99944091765E+003  0.30042660889E+000
                    0.79290000000E-001  0.00000000000E+000 -0.10000000000E+003                   1  0.72296901904E+006  0.14079248552E+002  0.00000000000E+000  0.10000000000E+001  0.00000000000E+000  0.00000000000E+000  0.99999000000E+000  0.99999997158E-005  0.00000000000E+000  0.10000000000E+001  0.00000000000E+000  0.87596387341E+001  0.99963330600E+003  0.30042447130E+000
                    0.79290000000E-001  0.00000000000E+000 -0.10200000000E+003                   1  0.74211412552E+006  0.17615072163E+002  0.00000000000E+000  0.10000000000E+001  0.00000000000E+000  0.00000000000E+000  0.99999000000E+000  0.99999997474E-005  0.00000000000E+000  0.10000000000E+001  0.00000000000E+000  0.88806155979E+001  0.99907732927E+003  0.30042309256E+000