 VARIABLES       =                 X                 Y                 Z              ROCK              PRES              TEMP             SAT_G             SAT_L         X_WATER_G           X_AIR_G         X_WATER_L           X_AIR_L             REL_G             REL_L           PCAP_GL             DEN_G             DEN_L               POR
 ZONE T=" 0.3153570E+08 SEC"  I =        9 J =        0 K =       30
                    0.37500000000E-001  0.00000000000E+000 -0.15000000000E+001                   2  0.10085346604E+006  0.10778913632E+002  0.50025711719E+000  0.49974288281E+000  0.80169717045E-002  0.99198302830E+000  0.99998399607E+000  0.16003931279E-004  0.18782155144E+000  0.60992511825E-001  0.00000000000E+000  0.12312168296E+001  0.99972552954E+003  0.99993645439E-003
                    0.37500000000E-001  0.00000000000E+000 -0.27500000000E+001                   2  0.10086332863E+006  0.10236792202E+002  0.50028341745E+000  0.49971658255E+000  0.77299603544E-002  0.99227003965E+000  0.99998398710E+000  0.16012896508E-004  0.18785446008E+000  0.60979980082E-001  0.00000000000E+000  0.12339061890E+001  0.99977403056E+003  0.99993971362E-003
                    0.37500000000E-001  0.00000000000E+000 -0.47500000000E+001                   2  0.10088571410E+006  0.10170691323E+002  0.50029375370E+000  0.49970624630E+000  0.76939729195E-002  0.99230602708E+000  0.99998398262E+000  0.16017378677E-004  0.18786739436E+000  0.60975055488E-001  0.00000000000E+000  0.12344947616E+001  0.99977967216E+003  0.99993971303E-003
                    0.37500000000E-001  0.00000000000E+000 -0.85000000000E+001                   2  0.10093049558E+006  0.10248683218E+002  0.50028446551E+000  0.49971553449E+000  0.77309675703E-002  0.99226903243E+000  0.99998397647E+000  0.16023533834E-004  0.18785577155E+000  0.60979480733E-001  0.00000000000E+000  0.12346753206E+001  0.99977304277E+003  0.99994716235E-003
                    0.37500000000E-001  0.00000000000E+000 -0.13500000000E+002                   2  0.10100201077E+006  0.10409031315E+002  0.50029171837E+000  0.49970828163E+000  0.78091110745E-002  0.99219088893E+000  0.99998396713E+000  0.16032869591E-004  0.18786484742E+000  0.60976025174E-001  0.00000000000E+000  0.12347933281E+001  0.99975913412E+003  0.99996022513E-003
                    0.37500000000E-001  0.00000000000E+000 -0.18500000000E+002                   2  0.10108414154E+006  0.10727206853E+002  0.50028064990E+000  0.49971935010E+000  0.79709501070E-002  0.99202904989E+000  0.99998395827E+000  0.16041725056E-004  0.18785099698E+000  0.60981298702E-001  0.00000000000E+000  0.12342919300E+001  0.99973044077E+003  0.99995462919E-003
                    0.37500000000E-001  0.00000000000E+000 -0.23500000000E+002                   2  0.10108279335E+006  0.10221524351E+002  0.50031245226E+000  0.49968754774E+000  0.77051883782E-002  0.99229481162E+000  0.99998395162E+000  0.16048378609E-004  0.18789079414E+000  0.60966147460E-001  0.00000000000E+000  0.12366761065E+001  0.99977544037E+003  0.99997401103E-003
                    0.37500000000E-001  0.00000000000E+000 -0.28500000000E+002                   2  0.10133397834E+006  0.11851605753E+002  0.50023316858E+000  0.49976683142E+000  0.85701596879E-002  0.99142984031E+000  0.99998393414E+000  0.16065859699E-004  0.18779158815E+000  0.61003924608E-001  0.00000000000E+000  0.12320161904E+001  0.99961783675E+003  0.10000151086E-002
                    0.37500000000E-001  0.00000000000E+000 -0.33500000000E+002                   2  0.13423160295E+006  0.11555114180E+002  0.50064737929E+000  0.49935262071E+000  0.63356260434E-002  0.99366437396E+000  0.99997864173E+000  0.21358274775E-004  0.18831020638E+000  0.60806742245E-001  0.00000000000E+000  0.16358888358E+001  0.99966468048E+003  0.10003377426E-002
                    0.37500000000E-001  0.00000000000E+000 -0.38500000000E+002                   2  0.17265597155E+006  0.11634946921E+002  0.50108956522E+000  0.49891043478E+000  0.49475808639E-002  0.99505241914E+000  0.99997246643E+000  0.27533566289E-004  0.18886473891E+000  0.60596736289E-001  0.00000000000E+000  0.21053441495E+001  0.99967437118E+003  0.10006632005E-002
                    0.37500000000E-001  0.00000000000E+000 -0.42250000000E+002                   2  0.19484040162E+006  0.11724714259E+002  0.50134038860E+000  0.49865961140E+000  0.44089206588E-002  0.99559107934E+000  0.99996890176E+000  0.31098237144E-004  0.18917969663E+000  0.60477839930E-001  0.00000000000E+000  0.23758831486E+001  0.99967528664E+003  0.10008289404E-002
                    0.37500000000E-001  0.00000000000E+000 -0.44250000000E+002                   2  0.20468920188E+006  0.11762521483E+002  0.50144635484E+000  0.49855364516E+000  0.42067683766E-002  0.99579323162E+000  0.99996731920E+000  0.32680801076E-004  0.18931284653E+000  0.60427658562E-001  0.00000000000E+000  0.24959532827E+001  0.99967587401E+003  0.10009446543E-002
                    0.37500000000E-001  0.00000000000E+000 -0.45500000000E+002                   2  0.21138255877E+006  0.11784353864E+002  0.50153402631E+000  0.49846597369E+000  0.40791290776E-002  0.99592087092E+000  0.99996624362E+000  0.33756384429E-004  0.18942304827E+000  0.60386162949E-001  0.00000000000E+000  0.25775726673E+001  0.99967667542E+003  0.10010219632E-002
                    0.37500000000E-001  0.00000000000E+000 -0.46500000000E+002                   2  0.21732692296E+006  0.11800243758E+002  0.50159445976E+000  0.49840554024E+000  0.39714651931E-002  0.99602853481E+000  0.99996528834E+000  0.34711659335E-004  0.18949903321E+000  0.60357570941E-001  0.00000000000E+000  0.26500822914E+001  0.99967775732E+003  0.10010445715E-002
                    0.37500000000E-001  0.00000000000E+000 -0.47500000000E+002                   2  0.22349820369E+006  0.11815106775E+002  0.50166922812E+000  0.49833077188E+000  0.38653500844E-002  0.99613464992E+000  0.99996429658E+000  0.35703423368E-004  0.18959306557E+000  0.60322210013E-001  0.00000000000E+000  0.27253676020E+001  0.99967905236E+003  0.10011368798E-002
                    0.37500000000E-001  0.00000000000E+000 -0.48500000000E+002                   2  0.22991808060E+006  0.11829120897E+002  0.50173662714E+000  0.49826337286E+000  0.37606619474E-002  0.99623933805E+000  0.99996326484E+000  0.36735158684E-004  0.18967785235E+000  0.60290346788E-001  0.00000000000E+000  0.28036921251E+001  0.99968055212E+003  0.10012456898E-002
                    0.37500000000E-001  0.00000000000E+000 -0.49500000000E+002                   2  0.23598032704E+006  0.11844125320E+002  0.50181827922E+000  0.49818172078E+000  0.36674783120E-002  0.99633252169E+000  0.99996229061E+000  0.37709392425E-004  0.18978059777E+000  0.60251761166E-001  0.00000000000E+000  0.28776277386E+001  0.99968177413E+003  0.10012290991E-002
                    0.37500000000E-001  0.00000000000E+000 -0.50500000000E+002                   2  0.24131670677E+006  0.11863981006E+002  0.50187401827E+000  0.49812598173E+000  0.35909168120E-002  0.99640908319E+000  0.99996143312E+000  0.38566877019E-004  0.18985075393E+000  0.60225430993E-001  0.00000000000E+000  0.29426327353E+001  0.99968212690E+003  0.10013142059E-002
                    0.37500000000E-001  0.00000000000E+000 -0.51500000000E+002                   2  0.15613544258E+006  0.11907218283E+002  0.10179595519E-002  0.99898204045E+000  0.55725163097E-002  0.99442748369E+000  0.99997512598E+000  0.24874019606E-004  0.00000000000E+000  0.98896514977E+000  0.00000000000E+000  0.19013584306E+001  0.99963750447E+003  0.10003641116E-002
                    0.37500000000E-001  0.00000000000E+000 -0.52500000000E+002                   2  0.90160312120E+005  0.11922248662E+002  0.26638524447E-003  0.99973361476E+000  0.96838004175E-002  0.99031619958E+000  0.99998573128E+000  0.14268715801E-004  0.00000000000E+000  0.99626191315E+000  0.00000000000E+000  0.10951598320E+001  0.99960494328E+003  0.99968070056E-003
                    0.37500000000E-001  0.00000000000E+000 -0.53500000000E+002                   2  0.76202377995E+005  0.11935001013E+002  0.00000000000E+000  0.10000000000E+001  0.00000000000E+000  0.00000000000E+000  0.99998902976E+000  0.10970236781E-004  0.00000000000E+000  0.10000000000E+001  0.00000000000E+000  0.92457336875E+000  0.99959701174E+003  0.99945606968E-003
                    0.37500000000E-001  0.00000000000E+000 -0.54500000000E+002                   2  0.87373990037E+005  0.11945251777E+002  0.00000000000E+000  0.10000000000E+001  0.00000000000E+000  0.00000000000E+000  0.99998983095E+000  0.10169051060E-004  0.00000000000E+000  0.10000000000E+001  0.00000000000E+000  0.10610208472E+001  0.99960113047E+003  0.99947194233E-003
                    0.37500000000E-001  0.00000000000E+000 -0.55500000000E+002                   2  0.96152520754E+005  0.11956068619E+002  0.00000000000E+000  0.10000000000E+001  0.00000000000E+000  0.00000000000E+000  0.99998997761E+000  0.10022388858E-004  0.00000000000E+000  0.10000000000E+001  0.00000000000E+000  0.11682204100E+001  0.99960406372E+003  0.99945527993E-003
                    0.37500000000E-001  0.00000000000E+000 -0.56500000000E+002                   2  0.10574376192E+006  0.11966081455E+002  0.00000000000E+000  0.10000000000E+001  0.00000000000E+000  0.00000000000E+000  0.99998999752E+000  0.10002482114E-004  0.00000000000E+000  0.10000000000E+001  0.00000000000E+000  0.12853440402E+001  0.99960746382E+003  0.99945994772E-003
                    0.37500000000E-001  0.00000000000E+000 -0.57750000000E+002                   2  0.11877665851E+006  0.11979001768E+002  0.00000000000E+000  0.10000000000E+001  0.00000000000E+000  0.00000000000E+000  0.99998999986E+000  0.10000139197E-004  0.00000000000E+000  0.10000000000E+001  0.00000000000E+000  0.14444860902E+001  0.99961215620E+003  0.99946995769E-003
                    0.37500000000E-001  0.00000000000E+000 -0.59750000000E+002                   2  0.13767400947E+006  0.11998234643E+002  0.00000000000E+000  0.10000000000E+001  0.00000000000E+000  0.00000000000E+000  0.99999000000E+000  0.10000002563E-004  0.00000000000E+000  0.10000000000E+001  0.00000000000E+000  0.16752090342E+001  0.99961889971E+003  0.99946393424E-003
                    0.37500000000E-001  0.00000000000E+000 -0.63500000000E+002                   2  0.17174030207E+006  0.12057115495E+002  0.00000000000E+000  0.10000000000E+001  0.00000000000E+000  0.00000000000E+000  0.99999000000E+000  0.99999997445E-005  0.00000000000E+000  0.10000000000E+001  0.00000000000E+000  0.20908672846E+001  0.99962836048E+003  0.99944451720E-003
                    0.37500000000E-001  0.00000000000E+000 -0.68500000000E+002                   2  0.21890257286E+006  0.12111949583E+002  0.00000000000E+000  0.10000000000E+001  0.00000000000E+000  0.00000000000E+000  0.99999000000E+000  0.99999998353E-005  0.00000000000E+000  0.10000000000E+001  0.00000000000E+000  0.26662929594E+001  0.99964434950E+003  0.99943766393E-003
                    0.37500000000E-001  0.00000000000E+000 -0.76000000000E+002                   2  0.29003395014E+006  0.12181227173E+002  0.00000000000E+000  0.10000000000E+001  0.00000000000E+000  0.00000000000E+000  0.99999000000E+000  0.99999997440E-005  0.00000000000E+000  0.10000000000E+001  0.00000000000E+000  0.35339186733E+001  0.99966987868E+003  0.99939175730E-003
                    0.37500000000E-001  0.00000000000E+000 -0.86000000000E+002                   2  0.38512478222E+006  0.12251179184E+002  0.00000000000E+000  0.10000000000E+001  0.00000000000E+000  0.00000000000E+000  0.99999000000E+000  0.99999997803E-005  0.00000000000E+000  0.10000000000E+001  0.00000000000E+000  0.46935144428E+001  0.99970645101E+003  0.99937247867E-003
                    0.37500000000E-001  0.00000000000E+000 -0.93500000000E+002                   2  0.45447288554E+006  0.12111501081E+002  0.00000000000E+000  0.10000000000E+001  0.00000000000E+000  0.00000000000E+000  0.99999000000E+000  0.99999997532E-005  0.00000000000E+000  0.10000000000E+001  0.00000000000E+000  0.55426138996E+001  0.99975468186E+003  0.99934599436E-003
                    0.37500000000E-001  0.00000000000E+000 -0.97500000000E+002                   2  0.49479001791E+006  0.12416502130E+002  0.00000000000E+000  0.10000000000E+001  0.00000000000E+000  0.00000000000E+000  0.99999000000E+000  0.99999998274E-005  0.00000000000E+000  0.10000000000E+001  0.00000000000E+000  0.60283094064E+001  0.99973871040E+003  0.99934372452E-003
                    0.37500000000E-001  0.00000000000E+000 -0.10000000000E+003                   2  0.52513549293E+006  0.12961418182E+002  0.00000000000E+000  0.10000000000E+001  0.00000000000E+000  0.00000000000E+000  0.99999000000E+000  0.99999997705E-005  0.00000000000E+000  0.10000000000E+001  0.00000000000E+000  0.63860056213E+001  0.99968756117E+003  0.99938279887E-003
                    0.37500000000E-001  0.00000000000E+000 -0.10200000000E+003                   1  0.81307542438E+006  0.16730151313E+002  0.00000000000E+000  0.10000000000E+001  0.00000000000E+000  0.00000000000E+000  0.99999000000E+000  0.99999997665E-005  0.00000000000E+000  0.10000000000E+001  0.00000000000E+000  0.97608555770E+001  0.99926525690E+003  0.30063787069E+000
                    0.37500000000E-001  0.00000000000E+000 -0.10500000000E+003                   1  0.84246165153E+006  0.17353784094E+002  0.00000000000E+000  0.10000000000E+001  0.00000000000E+000  0.00000000000E+000  0.99999000000E+000  0.99999997858E-005  0.00000000000E+000  0.10000000000E+001  0.00000000000E+000  0.10091886385E+002  0.99917010220E+003  0.30063769043E+000
                    0.37500000000E-001  0.00000000000E+000 -0.11100000000E+003                   1  0.90123118789E+006  0.17795009226E+002  0.00000000000E+000  0.10000000000E+001  0.00000000000E+000  0.00000000000E+000  0.99999000000E+000  0.99999997056E-005  0.00000000000E+000  0.10000000000E+001  0.00000000000E+000  0.10779888773E+002  0.99911738847E+003  0.30063751007E+000
                    0.37500000000E-001  0.00000000000E+000 -0.12300000000E+003                   1  0.10187668846E+007  0.18128369423E+002  0.00000000000E+000  0.10000000000E+001  0.00000000000E+000  0.00000000000E+000  0.99999000000E+000  0.99999998825E-005  0.00000000000E+000  0.10000000000E+001  0.00000000000E+000  0.12172824640E+002  0.99910941893E+003  0.30063685975E+000
                    0.37500000000E-001  0.00000000000E+000 -0.14700000000E+003                   1  0.12538361920E+007  0.18629401794E+002  0.00000000000E+000  0.10000000000E+001  0.00000000000E+000  0.00000000000E+000  0.99999000000E+000  0.99999997012E-005  0.00000000000E+000  0.10000000000E+001  0.00000000000E+000  0.14957706895E+002  0.99912143644E+003  0.30063622978E+000
                    0.37500000000E-001  0.00000000000E+000 -0.19500000000E+003                   3  0.17239717150E+007  0.19625000000E+002  0.00000000000E+000  0.10000000000E+001  0.00000000000E+000  0.00000000000E+000  0.99999000000E+000  0.99999996637E-005  0.00000000000E+000  0.10000000000E+001  0.00000000000E+000  0.20499272147E+002  0.99913720003E+003  0.30063501000E+000
                    0.37500000000E-001  0.00000000000E+000 -0.50000000000E-005                   5  0.10132500000E+006  0.15000000000E+002  0.10000000000E+001  0.00000000000E+000  0.52500000000E-002  0.99475000000E+000  0.00000000000E+000  0.00000000000E+000  0.10000000000E+001  0.00000000000E+000  0.00000000000E+000  0.12208885648E+001  0.99921336741E+003  0.99000001000E+000
                    0.37500000000E-001  0.00000000000E+000 -0.25000000000E+000                   4  0.10162493745E+006  0.14779435999E+002  0.90556629312E+000  0.94433706881E-001  0.10356856720E-001  0.98964314328E+000  0.99998393433E+000  0.16065671461E-004  0.10000000000E+001  0.00000000000E+000 -0.23348092720E+006  0.12216756934E+001  0.99924594878E+003  0.30000082002E+000
                    0.37500000000E-001  0.00000000000E+000 -0.75000000000E+000                   4  0.10133703554E+006  0.14158241724E+002  0.89424872953E+000  0.10575127047E+000  0.99748340567E-002  0.99002516594E+000  0.99998396998E+000  0.16030023823E-004  0.98562256427E+000  0.16707091611E-006 -0.18309995267E+006  0.12211291021E+001  0.99933392975E+003  0.30000007001E+000
                    0.79290000000E-001  0.00000000000E+000 -0.25000000000E+000                   1  0.10133215838E+006  0.14780397499E+002  0.96929478697E+000  0.30705213029E-001  0.10387617830E-001  0.98961238217E+000  0.99998398141E+000  0.16018592219E-004  0.10000000000E+001  0.00000000000E+000 -0.17427584395E+009  0.12181294385E+001  0.99924567308E+003  0.30000004000E+000
                    0.79290000000E-001  0.00000000000E+000 -0.75000000000E+000                   1  0.10133705379E+006  0.14188811304E+002  0.90130819626E+000  0.98691803742E-001  0.99947456992E-002  0.99000525430E+000  0.99998397049E+000  0.16029512335E-004  0.10000000000E+001  0.00000000000E+000 -0.21208611107E+006  0.12209847846E+001  0.99932970682E+003  0.30000004001E+000
                    0.79290000000E-001  0.00000000000E+000 -0.15000000000E+001                   1  0.10134354404E+006  0.10843247791E+002  0.88841008006E+000  0.11158991994E+000  0.80124325724E-002  0.99198756743E+000  0.99998391818E+000  0.16081816934E-004  0.97103123747E+000  0.13679528468E-005 -0.16376745446E+006  0.12369228469E+001  0.99971973331E+003  0.30000007008E+000
                    0.79290000000E-001  0.00000000000E+000 -0.27500000000E+001                   1  0.10135677255E+006  0.10300903961E+002  0.88788672897E+000  0.11211327103E+000  0.77253581840E-002  0.99227464182E+000  0.99998390865E+000  0.16091354146E-004  0.96972371280E+000  0.15618365355E-005 -0.16220106311E+006  0.12396657325E+001  0.99976874318E+003  0.30000016009E+000
                    0.79290000000E-001  0.00000000000E+000 -0.47500000000E+001                   1  0.10137835820E+006  0.10234604375E+002  0.88640551788E+000  0.11359448212E+000  0.76893762580E-002  0.99231062374E+000  0.99998390429E+000  0.16095713757E-004  0.96602352535E+000  0.22080111318E-005 -0.15790010606E+006  0.12402467278E+001  0.99977446126E+003  0.30000022010E+000
                    0.79290000000E-001  0.00000000000E+000 -0.85000000000E+001                   1  0.10141929878E+006  0.10312181802E+002  0.88393626724E+000  0.11606373276E+000  0.77264237918E-002  0.99227357621E+000  0.99998389875E+000  0.16101253154E-004  0.95985669749E+000  0.36438442994E-005 -0.15113866641E+006  0.12403803295E+001  0.99976779562E+003  0.30000037011E+000
                    0.79290000000E-001  0.00000000000E+000 -0.13500000000E+002                   1  0.10147499508E+006  0.10469725921E+002  0.87852675845E+000  0.12147324155E+000  0.78042598484E-002  0.99219574015E+000  0.99998389192E+000  0.16108076121E-004  0.94635505407E+000  0.87088827848E-005 -0.13789988567E+006  0.12403139472E+001  0.99975398568E+003  0.30000052012E+000
                    0.79290000000E-001  0.00000000000E+000 -0.18500000000E+002                   1  0.10153173696E+006  0.10784916140E+002  0.85931426835E+000  0.14068573165E+000  0.79663562937E-002  0.99203364371E+000  0.99998388712E+000  0.16112876262E-004  0.89854206030E+000  0.59374881486E-004 -0.10349788397E+006  0.12395088014E+001  0.99972528925E+003  0.30000070012E+000
                    0.79290000000E-001  0.00000000000E+000 -0.23500000000E+002                   1  0.10158911063E+006  0.10285597628E+002  0.80508397201E+000  0.19491602799E+000  0.76996865281E-002  0.99230031347E+000  0.99998387109E+000  0.16128906853E-004  0.76585202602E+000  0.75998442585E-003 -0.56649868887E+005  0.12425937362E+001  0.99977017618E+003  0.30000091016E+000
                    0.79290000000E-001  0.00000000000E+000 -0.28500000000E+002                   1  0.10164866097E+006  0.11892491330E+002  0.42257061163E+000  0.57742938837E+000  0.85667074965E-002  0.99143329250E+000  0.99998388416E+000  0.16115840336E-004  0.10467701950E+000  0.10661728830E+000 -0.80068786976E+004  0.12356674279E+001  0.99961356161E+003  0.30000108031E+000
                    0.79290000000E-001  0.00000000000E+000 -0.33500000000E+002                   1  0.14405062919E+006  0.11599121585E+002  0.85424399604E-001  0.91457560040E+000  0.59194990950E-002  0.99408050091E+000  0.99997706402E+000  0.22935979873E-004  0.00000000000E+000  0.63977340277E+000 -0.17792333823E+004  0.17557238817E+001  0.99966470144E+003  0.30012974145E+000
                    0.79290000000E-001  0.00000000000E+000 -0.38500000000E+002                   1  0.19277864084E+006  0.11678665057E+002  0.72366751218E-001  0.92763324878E+000  0.44426170059E-002  0.99555738299E+000  0.99996923250E+000  0.30767497234E-004  0.00000000000E+000  0.68014274581E+000 -0.15855625848E+004  0.23510741666E+001  0.99967920397E+003  0.30027607122E+000
                    0.79290000000E-001  0.00000000000E+000 -0.42250000000E+002                   1  0.22924333055E+006  0.11767362439E+002  0.56959703495E-001  0.94304029651E+000  0.37563622055E-002  0.99624363779E+000  0.99996337240E+000  0.36627604832E-004  0.00000000000E+000  0.73162767829E+000 -0.13486714666E+004  0.27960771906E+001  0.99968687176E+003  0.30038559098E+000
                    0.79290000000E-001  0.00000000000E+000 -0.44250000000E+002                   1  0.24867244389E+006  0.11804957954E+002  0.47799569825E-001  0.95220043018E+000  0.34708863258E-002  0.99652911367E+000  0.99996024988E+000  0.39750115557E-004  0.00000000000E+000  0.76457866762E+000 -0.12011703984E+004  0.30331774042E+001  0.99969194822E+003  0.30044401084E+000
                    0.79290000000E-001  0.00000000000E+000 -0.45500000000E+002                   1  0.26082737663E+006  0.11826674827E+002  0.42932358833E-001  0.95706764117E+000  0.33135735132E-002  0.99668642649E+000  0.99995829641E+000  0.41703593183E-004  0.00000000000E+000  0.78292011231E+000 -0.11199327207E+004  0.31814973284E+001  0.99969530722E+003  0.30048057078E+000
                    0.79290000000E-001  0.00000000000E+000 -0.46500000000E+002                   1  0.27056988362E+006  0.11842494426E+002  0.40193021826E-001  0.95980697817E+000  0.31973751653E-002  0.99680262483E+000  0.99995673062E+000  0.43269379263E-004  0.00000000000E+000  0.79352623345E+000 -0.10731274487E+004  0.33003824753E+001  0.99969816569E+003  0.30050981075E+000
                    0.79290000000E-001  0.00000000000E+000 -0.47500000000E+002                   1  0.28032669128E+006  0.11857297966E+002  0.38302687381E-001  0.96169731262E+000  0.30889060629E-002  0.99691109394E+000  0.99995516252E+000  0.44837476938E-004  0.00000000000E+000  0.80097269499E+000 -0.10403099462E+004  0.34194418042E+001  0.99970113687E+003  0.30053920075E+000
                    0.79290000000E-001  0.00000000000E+000 -0.48500000000E+002                   1  0.29008834952E+006  0.11871285618E+002  0.36696010398E-001  0.96330398960E+000  0.29875376145E-002  0.99701246239E+000  0.99995359364E+000  0.46406364278E-004  0.00000000000E+000  0.80738773619E+000 -0.10120525814E+004  0.35385585099E+001  0.99970419526E+003  0.30056858078E+000
                    0.79290000000E-001  0.00000000000E+000 -0.49500000000E+002                   1  0.29985088954E+006  0.11886261963E+002  0.35142640874E-001  0.96485735913E+000  0.28929633695E-002  0.99710703663E+000  0.99995202462E+000  0.47975376742E-004  0.00000000000E+000  0.81366827937E+000 -0.98438935975E+003  0.36576611895E+001  0.99970714322E+003  0.30059794083E+000
                    0.79290000000E-001  0.00000000000E+000 -0.50500000000E+002                   1  0.30958371237E+006  0.11906030944E+002  0.31971306367E-001  0.96802869363E+000  0.28055241428E-002  0.99719447586E+000  0.99995046046E+000  0.49539539633E-004  0.00000000000E+000  0.82674361275E+000 -0.92675428188E+003  0.37763227125E+001  0.99970955096E+003  0.30062720089E+000
                    0.79290000000E-001  0.00000000000E+000 -0.51500000000E+002                   1  0.31844737947E+006  0.11948466976E+002  0.00000000000E+000  0.10000000000E+001  0.00000000000E+000  0.00000000000E+000  0.99997404298E+000  0.25957018547E-004  0.00000000000E+000  0.10000000000E+001  0.00000000000E+000  0.38840300108E+001  0.99970906314E+003  0.30063906062E+000
                    0.79290000000E-001  0.00000000000E+000 -0.52500000000E+002                   1  0.32823885358E+006  0.11963499028E+002  0.00000000000E+000  0.10000000000E+001  0.00000000000E+000  0.00000000000E+000  0.99998518046E+000  0.14819543516E-004  0.00000000000E+000  0.10000000000E+001  0.00000000000E+000  0.40034349369E+001  0.99971200030E+003  0.30063909072E+000
                    0.79290000000E-001  0.00000000000E+000 -0.53500000000E+002                   1  0.33803040798E+006  0.11976215051E+002  0.00000000000E+000  0.10000000000E+001  0.00000000000E+000  0.00000000000E+000  0.99998893460E+000  0.11065397951E-004  0.00000000000E+000  0.10000000000E+001  0.00000000000E+000  0.41228627214E+001  0.99971518872E+003  0.30063909083E+000
                    0.79290000000E-001  0.00000000000E+000 -0.54500000000E+002                   1  0.34782207209E+006  0.11986502087E+002  0.00000000000E+000  0.10000000000E+001  0.00000000000E+000  0.00000000000E+000  0.99998981995E+000  0.10180050022E-004  0.00000000000E+000  0.10000000000E+001  0.00000000000E+000  0.42423183619E+001  0.99971864221E+003  0.30063912093E+000
                    0.79290000000E-001  0.00000000000E+000 -0.55500000000E+002                   1  0.35761385597E+006  0.11997294594E+002  0.00000000000E+000  0.10000000000E+001  0.00000000000E+000  0.00000000000E+000  0.99998997570E+000  0.10024296215E-004  0.00000000000E+000  0.10000000000E+001  0.00000000000E+000  0.43617588966E+001  0.99972203803E+003  0.30063912103E+000
                    0.79290000000E-001  0.00000000000E+000 -0.56500000000E+002                   1  0.36740576284E+006  0.12007309615E+002  0.00000000000E+000  0.10000000000E+001  0.00000000000E+000  0.00000000000E+000  0.99998999726E+000  0.10002740695E-004  0.00000000000E+000  0.10000000000E+001  0.00000000000E+000  0.44812044387E+001  0.99972551777E+003  0.30063915111E+000
                    0.79290000000E-001  0.00000000000E+000 -0.57750000000E+002                   1  0.37964580851E+006  0.12020212764E+002  0.00000000000E+000  0.10000000000E+001  0.00000000000E+000  0.00000000000E+000  0.99998999984E+000  0.10000159584E-004  0.00000000000E+000  0.10000000000E+001  0.00000000000E+000  0.46304951393E+001  0.99972982236E+003  0.30063918121E+000
                    0.79290000000E-001  0.00000000000E+000 -0.59750000000E+002                   1  0.39923027337E+006  0.12039483606E+002  0.00000000000E+000  0.10000000000E+001  0.00000000000E+000  0.00000000000E+000  0.99999000000E+000  0.10000003179E-004  0.00000000000E+000  0.10000000000E+001  0.00000000000E+000  0.48693609873E+001  0.99973685623E+003  0.30063912135E+000
                    0.79290000000E-001  0.00000000000E+000 -0.63500000000E+002                   1  0.43595241223E+006  0.12097864120E+002  0.00000000000E+000  0.10000000000E+001  0.00000000000E+000  0.00000000000E+000  0.99999000000E+000  0.99999997609E-005  0.00000000000E+000  0.10000000000E+001  0.00000000000E+000  0.53167386854E+001  0.99974754050E+003  0.30063906156E+000
                    0.79290000000E-001  0.00000000000E+000 -0.68500000000E+002                   1  0.48491850150E+006  0.12152671090E+002  0.00000000000E+000  0.10000000000E+001  0.00000000000E+000  0.00000000000E+000  0.99999000000E+000  0.99999998232E-005  0.00000000000E+000  0.10000000000E+001  0.00000000000E+000  0.59134841593E+001  0.99976430142E+003  0.30063900173E+000
                    0.79290000000E-001  0.00000000000E+000 -0.76000000000E+002                   1  0.55837312253E+006  0.12221725472E+002  0.00000000000E+000  0.10000000000E+001  0.00000000000E+000  0.00000000000E+000  0.99999000000E+000  0.99999997455E-005  0.00000000000E+000  0.10000000000E+001  0.00000000000E+000  0.68085589789E+001  0.99979084380E+003  0.30063891184E+000
                    0.79290000000E-001  0.00000000000E+000 -0.86000000000E+002                   1  0.65632646061E+006  0.12291596357E+002  0.00000000000E+000  0.10000000000E+001  0.00000000000E+000  0.00000000000E+000  0.99999000000E+000  0.99999997716E-005  0.00000000000E+000  0.10000000000E+001  0.00000000000E+000  0.80021191353E+001  0.99982865637E+003  0.30063862176E+000
                    0.79290000000E-001  0.00000000000E+000 -0.93500000000E+002                   1  0.72980173264E+006  0.12154790255E+002  0.00000000000E+000  0.10000000000E+001  0.00000000000E+000  0.00000000000E+000  0.99999000000E+000  0.99999997472E-005  0.00000000000E+000  0.10000000000E+001  0.00000000000E+000  0.89030130611E+001  0.99987862431E+003  0.30063832146E+000
                    0.79290000000E-001  0.00000000000E+000 -0.97500000000E+002                   1  0.76899046649E+006  0.12459773101E+002  0.00000000000E+000  0.10000000000E+001  0.00000000000E+000  0.00000000000E+000  0.99999000000E+000  0.99999998349E-005  0.00000000000E+000  0.10000000000E+001  0.00000000000E+000  0.93712857181E+001  0.99986176444E+003  0.30063808121E+000
                    0.79290000000E-001  0.00000000000E+000 -0.10000000000E+003                   1  0.79348319595E+006  0.13004561215E+002  0.00000000000E+000  0.10000000000E+001  0.00000000000E+000  0.00000000000E+000  0.99999000000E+000  0.99999997951E-005  0.00000000000E+000  0.10000000000E+001  0.00000000000E+000  0.96513266434E+001  0.99980727995E+003  0.30063796100E+000
                    0.79290000000E-001  0.00000000000E+000 -0.10200000000E+003                   1  0.81307542200E+006  0.16731370755E+002  0.00000000000E+000  0.10000000000E+001  0.00000000000E+000  0.00000000000E+000  0.99999000000E+000  0.99999997663E-005  0.00000000000E+000  0.10000000000E+001  0.00000000000E+000  0.97608138198E+001  0.99926504895E+003  0.30063787069E+000