        VARIABLES=                 X                 Y                 Z      FLOW_WATER_G        FLOW_AIR_G      FLOW_WATER_L        FLOW_AIR_L     FDIFF_WATER_G       FDIFF_AIR_G     FDIFF_WATER_L       FDIFF_AIR_L
 ZONE T=" 0.7200000E+05 SEC"  I =     1445 
                    0.74998205398E-001  0.00000000000E+000 -0.50000000000E-005  0.00000000000E+000  0.00000000000E+000  0.00000000000E+000  0.00000000000E+000  0.00000000000E+000  0.00000000000E+000  0.00000000000E+000  0.00000000000E+000
                    0.74998205398E-001  0.00000000000E+000 -0.10000000000E+000 -0.15474952601E-010 -0.20550016722E-008 -0.15964092835E-012 -0.26027585088E-017  0.12137414171E-008 -0.12137414171E-008  0.60821797777E-022 -0.60821797774E-022
                    0.74998205398E-001  0.00000000000E+000 -0.30000000000E+000 -0.56754268523E-012 -0.74417185637E-010 -0.12587691987E-012 -0.20265404240E-017  0.43888062569E-010 -0.43888062569E-010  0.69243707824E-023 -0.69243708273E-023
                    0.74998205398E-001  0.00000000000E+000 -0.50000000000E+000 -0.26795136677E-013 -0.35119581656E-011 -0.12788289177E-012 -0.20579324749E-017  0.82435176744E-012 -0.82435176744E-012  0.38792124622E-024 -0.38792130760E-024
                    0.74998205398E-001  0.00000000000E+000 -0.70000000000E+000 -0.49313228681E-013 -0.64646406225E-011 -0.13013774568E-012 -0.20943110875E-017  0.69640856549E-012 -0.69640856549E-012  0.82297366263E-024 -0.82297370557E-024
                    0.74998205398E-001  0.00000000000E+000 -0.90000000000E+000  0.12041247664E-011  0.15800848668E-009 -0.13258133837E-012 -0.21336620494E-017  0.14744790206E-009 -0.14744790206E-009  0.42747193404E-024 -0.42747191935E-024
                    0.37597140865E-001  0.00000000000E+000 -0.60000000000E+001  0.00000000000E+000  0.00000000000E+000  0.00000000000E+000  0.00000000000E+000 -0.48719334975E-011  0.48719334975E-011 -0.20611921550E-018  0.20611921543E-018
                    0.37597140865E-001  0.00000000000E+000 -0.16000000000E+002  0.00000000000E+000  0.00000000000E+000  0.00000000000E+000  0.00000000000E+000 -0.48046593820E-011  0.48046593820E-011 -0.38845743385E-017  0.38845743408E-017
                    0.37597140865E-001  0.00000000000E+000 -0.26000000000E+002  0.00000000000E+000  0.00000000000E+000  0.00000000000E+000  0.00000000000E+000 -0.44330076603E-011  0.44330076603E-011 -0.16393267447E-016  0.16393267426E-016
                    0.37597140865E-001  0.00000000000E+000 -0.36000000000E+002  0.00000000000E+000  0.00000000000E+000  0.00000000000E+000  0.00000000000E+000 -0.00000000000E+000  0.00000000000E+000 -0.38667849391E-014  0.38667849391E-014
                    0.37597140865E-001  0.00000000000E+000 -0.46000000000E+002  0.00000000000E+000  0.00000000000E+000  0.00000000000E+000  0.00000000000E+000 -0.00000000000E+000  0.00000000000E+000 -0.83913246125E-014  0.83913246125E-014
                    0.37597140865E-001  0.00000000000E+000 -0.56000000000E+002  0.00000000000E+000  0.00000000000E+000  0.00000000000E+000  0.00000000000E+000  0.00000000000E+000  0.00000000000E+000 -0.35781100506E-014  0.35781100510E-014
                    0.37597140865E-001  0.00000000000E+000 -0.66000000000E+002  0.00000000000E+000  0.00000000000E+000  0.00000000000E+000  0.00000000000E+000  0.00000000000E+000  0.00000000000E+000 -0.52056594174E-016  0.52056594242E-016
                    0.37597140865E-001  0.00000000000E+000 -0.76000000000E+002  0.00000000000E+000  0.00000000000E+000  0.00000000000E+000  0.00000000000E+000  0.00000000000E+000  0.00000000000E+000 -0.56013620114E-018  0.56013651084E-018
                    0.37597140865E-001  0.00000000000E+000 -0.86000000000E+002  0.00000000000E+000  0.00000000000E+000  0.00000000000E+000  0.00000000000E+000  0.00000000000E+000  0.00000000000E+000 -0.42760192943E-020  0.42761392986E-020
                    0.37597140865E-001  0.00000000000E+000 -0.96000000000E+002  0.00000000000E+000  0.00000000000E+000  0.00000000000E+000  0.00000000000E+000  0.00000000000E+000  0.00000000000E+000  0.00000000000E+000  0.50737045975E-026
                    0.74998205398E-001  0.00000000000E+000 -0.10110000000E+003  0.00000000000E+000  0.00000000000E+000 -0.15100373185E-008 -0.15100523809E-013  0.00000000000E+000  0.00000000000E+000  0.00000000000E+000 -0.41302020297E-027
                    0.74998205398E-001  0.00000000000E+000 -0.10150000000E+003  0.00000000000E+000  0.00000000000E+000 -0.20451269258E-009 -0.20451473256E-014  0.00000000000E+000  0.00000000000E+000  0.00000000000E+000 -0.15368147142E-027
                    0.74998205398E-001  0.00000000000E+000 -0.10230000000E+003  0.00000000000E+000  0.00000000000E+000 -0.24642621702E-010 -0.24642867508E-015  0.00000000000E+000  0.00000000000E+000  0.00000000000E+000  0.00000000000E+000
                    0.74998205398E-001  0.00000000000E+000 -0.10380000000E+003  0.00000000000E+000  0.00000000000E+000 -0.15744815747E-011 -0.15744972798E-016  0.00000000000E+000  0.00000000000E+000  0.00000000000E+000  0.00000000000E+000
                    0.74998205398E-001  0.00000000000E+000 -0.10680000000E+003  0.00000000000E+000  0.00000000000E+000 -0.54796235759E-013 -0.54796782342E-018  0.00000000000E+000  0.00000000000E+000  0.00000000000E+000  0.15369993114E-027
                    0.74998205398E-001  0.00000000000E+000 -0.11280000000E+003  0.00000000000E+000  0.00000000000E+000 -0.60709962575E-013 -0.60710568147E-018  0.00000000000E+000  0.00000000000E+000  0.00000000000E+000 -0.61481310299E-027
                    0.74998205398E-001  0.00000000000E+000 -0.12480000000E+003  0.00000000000E+000  0.00000000000E+000  0.40053181084E-013  0.40053580608E-018  0.00000000000E+000  0.00000000000E+000  0.00000000000E+000  0.00000000000E+000
                    0.74998205398E-001  0.00000000000E+000 -0.14880000000E+003  0.00000000000E+000  0.00000000000E+000 -0.67204019397E-013 -0.67204689746E-018  0.00000000000E+000  0.00000000000E+000  0.00000000000E+000  0.00000000000E+000
                    0.74998205398E-001  0.00000000000E+000 -0.19680000000E+003  0.00000000000E+000  0.00000000000E+000  0.00000000000E+000  0.00000000000E+000  0.00000000000E+000  0.00000000000E+000  0.00000000000E+000  0.00000000000E+000
                    0.83584331342E-001  0.00000000000E+000 -0.50000000000E-005  0.00000000000E+000  0.00000000000E+000  0.00000000000E+000  0.00000000000E+000  0.00000000000E+000  0.00000000000E+000  0.00000000000E+000  0.00000000000E+000
                    0.83584331342E-001  0.00000000000E+000 -0.10000000000E+000 -0.23821295074E-010 -0.31220570767E-008  0.81803588084E-010  0.13163222518E-014  0.53769281874E-012 -0.53769281874E-012  0.17747850053E-026 -0.17747785635E-026
                    0.83584331342E-001  0.00000000000E+000 -0.30000000000E+000 -0.11526684425E-011 -0.15106847889E-009 -0.11007634302E-012 -0.17713027073E-017 -0.78164326625E-013  0.78164326625E-013  0.21169898963E-027 -0.21167458576E-027
                    0.83584331342E-001  0.00000000000E+000 -0.50000000000E+000 -0.73649944307E-013 -0.96529914978E-011  0.19951051154E-016  0.32105141392E-021 -0.66454061128E-013  0.66454061128E-013 -0.77307159782E-029  0.78000499071E-029
                    0.83584331342E-001  0.00000000000E+000 -0.70000000000E+000 -0.58449055696E-013 -0.76622300682E-011 -0.17786725706E-012 -0.28623042624E-017  0.98395818023E-013 -0.98395818023E-013  0.70624802895E-028 -0.70636131038E-028
                    0.83584331342E-001  0.00000000000E+000 -0.90000000000E+000  0.20604187837E-012  0.27036446576E-010 -0.20764485925E-012 -0.33416126470E-017  0.16135620450E-010 -0.16135620450E-010  0.10121476205E-025 -0.10121559370E-025
                    0.83584331342E-001  0.00000000000E+000 -0.60000000000E+001  0.97195794769E-009  0.13959420071E-006 -0.75892056510E-007 -0.12233996560E-011  0.13952746492E-006 -0.13952746492E-006  0.20178372526E-020 -0.20178372953E-020
                    0.83584331342E-001  0.00000000000E+000 -0.16000000000E+002  0.93005685880E-009  0.13347741653E-006 -0.11816788265E-006 -0.19071316956E-011  0.13333906863E-006 -0.13333906863E-006  0.50955109475E-019 -0.50955111150E-019
                    0.83584331342E-001  0.00000000000E+000 -0.26000000000E+002  0.35102618449E-009  0.50045367088E-007  0.13488068537E-007  0.21791296211E-012  0.49946273390E-007 -0.49946273390E-007  0.28315109275E-016 -0.28315107764E-016
                    0.83584331342E-001  0.00000000000E+000 -0.36000000000E+002  0.00000000000E+000  0.00000000000E+000  0.15585470652E-007  0.45859986362E-012  0.00000000000E+000 -0.00000000000E+000  0.77147785806E-015 -0.77147787344E-015
                    0.83584331342E-001  0.00000000000E+000 -0.46000000000E+002  0.00000000000E+000  0.00000000000E+000  0.15447650803E-007  0.69731716281E-012  0.00000000000E+000 -0.00000000000E+000  0.90172111152E-015 -0.90172113703E-015
                    0.83584331342E-001  0.00000000000E+000 -0.56000000000E+002  0.00000000000E+000  0.00000000000E+000  0.23997605502E-008  0.25827048761E-013  0.00000000000E+000  0.00000000000E+000 -0.16818268791E-019  0.16803258090E-019
                    0.83584331342E-001  0.00000000000E+000 -0.66000000000E+002  0.00000000000E+000  0.00000000000E+000  0.28768539401E-008  0.28800682692E-013  0.00000000000E+000  0.00000000000E+000 -0.25483344496E-021  0.20158695786E-021
                    0.83584331342E-001  0.00000000000E+000 -0.76000000000E+002  0.00000000000E+000  0.00000000000E+000  0.25899190529E-008  0.25899757449E-013  0.00000000000E+000  0.00000000000E+000  0.00000000000E+000 -0.19637535377E-024
                    0.83584331342E-001  0.00000000000E+000 -0.86000000000E+002  0.00000000000E+000  0.00000000000E+000  0.29611216032E-008  0.29611514092E-013  0.00000000000E+000  0.00000000000E+000  0.00000000000E+000 -0.65720577762E-024
                    0.83584331342E-001  0.00000000000E+000 -0.96000000000E+002  0.00000000000E+000  0.00000000000E+000  0.27536504522E-008  0.27536779194E-013  0.00000000000E+000  0.00000000000E+000  0.00000000000E+000 -0.10364084619E-023
                    0.83584331342E-001  0.00000000000E+000 -0.10110000000E+003  0.00000000000E+000  0.00000000000E+000 -0.16691973169E-008 -0.16692139669E-013  0.00000000000E+000  0.00000000000E+000  0.00000000000E+000  0.12637609315E-026
                    0.83584331342E-001  0.00000000000E+000 -0.10150000000E+003  0.00000000000E+000  0.00000000000E+000 -0.24819155278E-009 -0.24819402845E-014  0.00000000000E+000  0.00000000000E+000  0.00000000000E+000  0.19442419659E-027
                    0.83584331342E-001  0.00000000000E+000 -0.10230000000E+003  0.00000000000E+000  0.00000000000E+000 -0.30417034741E-010 -0.30417338146E-015  0.00000000000E+000  0.00000000000E+000  0.00000000000E+000 -0.19442371967E-027
                    0.83584331342E-001  0.00000000000E+000 -0.10380000000E+003  0.00000000000E+000  0.00000000000E+000 -0.19500155548E-011 -0.19500350059E-016  0.00000000000E+000  0.00000000000E+000  0.00000000000E+000  0.00000000000E+000
                    0.83584331342E-001  0.00000000000E+000 -0.10680000000E+003  0.00000000000E+000  0.00000000000E+000 -0.65121223043E-013 -0.65121872616E-018  0.00000000000E+000  0.00000000000E+000  0.00000000000E+000  0.00000000000E+000
                    0.83584331342E-001  0.00000000000E+000 -0.11280000000E+003  0.00000000000E+000  0.00000000000E+000 -0.67319019434E-013 -0.67319690930E-018  0.00000000000E+000  0.00000000000E+000  0.00000000000E+000  0.00000000000E+000
                    0.83584331342E-001  0.00000000000E+000 -0.12480000000E+003  0.00000000000E+000  0.00000000000E+000  0.33776772120E-013  0.33777109037E-018  0.00000000000E+000  0.00000000000E+000  0.00000000000E+000  0.00000000000E+000
                    0.83584331342E-001  0.00000000000E+000 -0.14880000000E+003  0.00000000000E+000  0.00000000000E+000 -0.10203572098E-012 -0.10203673877E-017  0.00000000000E+000  0.00000000000E+000  0.00000000000E+000  0.00000000000E+000
                    0.83584331342E-001  0.00000000000E+000 -0.19680000000E+003  0.00000000000E+000  0.00000000000E+000  0.00000000000E+000  0.00000000000E+000  0.00000000000E+000  0.00000000000E+000  0.00000000000E+000  0.00000000000E+000
                    0.93414398785E-001  0.00000000000E+000 -0.50000000000E-005  0.00000000000E+000  0.00000000000E+000  0.00000000000E+000  0.00000000000E+000  0.00000000000E+000  0.00000000000E+000  0.00000000000E+000  0.00000000000E+000
                    0.93414398785E-001  0.00000000000E+000 -0.10000000000E+000 -0.22580995600E-010 -0.29594980960E-008 -0.77518348196E-013 -0.12473673716E-017  0.52894195594E-012 -0.52894195594E-012  0.33975748422E-026 -0.33975931951E-026
                    0.93414398785E-001  0.00000000000E+000 -0.30000000000E+000 -0.14187278814E-011 -0.18593820251E-009 -0.10864240391E-012 -0.17482283261E-017 -0.50339182857E-013  0.50339182857E-013  0.27480137785E-027 -0.27485114577E-027
                    0.93414398785E-001  0.00000000000E+000 -0.50000000000E+000 -0.12177219435E-012 -0.15960176650E-010 -0.14023872941E-012 -0.22567152987E-017 -0.32986959692E-014  0.32986959692E-014  0.31176065697E-028 -0.31250286317E-028
                    0.93414398785E-001  0.00000000000E+000 -0.70000000000E+000 -0.60845482800E-013 -0.79763819186E-011 -0.17363777868E-012 -0.27942419563E-017  0.59612207611E-012 -0.59612207611E-012  0.32934887593E-027 -0.32933343640E-027
                    0.93414398785E-001  0.00000000000E+000 -0.90000000000E+000  0.22274488949E-012  0.29227037646E-010 -0.20960439673E-012 -0.33731459527E-017  0.18151663476E-010 -0.18151663476E-010  0.11382366787E-025 -0.11382284499E-025
                    0.93414398785E-001  0.00000000000E+000 -0.60000000000E+001  0.98283228523E-009  0.14020518435E-006 -0.47660580481E-010 -0.76824517041E-015  0.14011646986E-006 -0.14011646986E-006  0.19388975586E-020 -0.19388974748E-020
                    0.93414398785E-001  0.00000000000E+000 -0.16000000000E+002  0.93948200191E-009  0.13390918976E-006 -0.10130898649E-008 -0.16349225893E-013  0.13377308794E-006 -0.13377308794E-006  0.51005332003E-019 -0.51005333972E-019
                    0.93414398785E-001  0.00000000000E+000 -0.26000000000E+002  0.35480225990E-009  0.50257107229E-007  0.38138179262E-007  0.61611527682E-012  0.50025838722E-007 -0.50025838722E-007  0.28351073452E-016 -0.28351075249E-016
                    0.93414398785E-001  0.00000000000E+000 -0.36000000000E+002  0.00000000000E+000  0.00000000000E+000  0.31684233476E-007  0.93226988890E-012  0.00000000000E+000 -0.00000000000E+000  0.79138681416E-015 -0.79138680003E-015
                    0.93414398785E-001  0.00000000000E+000 -0.46000000000E+002  0.00000000000E+000  0.00000000000E+000  0.30453854067E-007  0.13746738701E-011  0.00000000000E+000 -0.00000000000E+000  0.87517713332E-015 -0.87517706942E-015
                    0.93414398785E-001  0.00000000000E+000 -0.56000000000E+002  0.00000000000E+000  0.00000000000E+000  0.39852534106E-008  0.42890668459E-013  0.00000000000E+000  0.00000000000E+000  0.23632205374E-020 -0.24214781263E-020
                    0.93414398785E-001  0.00000000000E+000 -0.66000000000E+002  0.00000000000E+000  0.00000000000E+000  0.57597366044E-008  0.57661719985E-013  0.00000000000E+000  0.00000000000E+000  0.12438544330E-021 -0.81073739564E-022
                    0.93414398785E-001  0.00000000000E+000 -0.76000000000E+002  0.00000000000E+000  0.00000000000E+000  0.48699697062E-008  0.48700763072E-013  0.00000000000E+000  0.00000000000E+000  0.00000000000E+000 -0.71366831637E-024
                    0.93414398785E-001  0.00000000000E+000 -0.86000000000E+002  0.00000000000E+000  0.00000000000E+000  0.60961119196E-008  0.60961732817E-013  0.00000000000E+000  0.00000000000E+000  0.00000000000E+000  0.70041240996E-024
                    0.93414398785E-001  0.00000000000E+000 -0.96000000000E+002  0.00000000000E+000  0.00000000000E+000  0.55889080703E-008  0.55889638187E-013  0.00000000000E+000  0.00000000000E+000  0.00000000000E+000 -0.60743014903E-025
                    0.93414398785E-001  0.00000000000E+000 -0.10110000000E+003  0.00000000000E+000  0.00000000000E+000 -0.18571331134E-008 -0.18571516380E-013  0.00000000000E+000  0.00000000000E+000  0.00000000000E+000  0.38428088329E-026
                    0.93414398785E-001  0.00000000000E+000 -0.10150000000E+003  0.00000000000E+000  0.00000000000E+000 -0.30214298890E-009 -0.30214600272E-014  0.00000000000E+000  0.00000000000E+000  0.00000000000E+000  0.94916237202E-027
                    0.93414398785E-001  0.00000000000E+000 -0.10230000000E+003  0.00000000000E+000  0.00000000000E+000 -0.37735881528E-010 -0.37736257937E-015  0.00000000000E+000  0.00000000000E+000  0.00000000000E+000  0.00000000000E+000
                    0.93414398785E-001  0.00000000000E+000 -0.10380000000E+003  0.00000000000E+000  0.00000000000E+000 -0.24302949317E-011 -0.24303191735E-016  0.00000000000E+000  0.00000000000E+000  0.00000000000E+000  0.75933218209E-027
                    0.93414398785E-001  0.00000000000E+000 -0.10680000000E+003  0.00000000000E+000  0.00000000000E+000 -0.86136852436E-013 -0.86137711637E-018  0.00000000000E+000  0.00000000000E+000  0.00000000000E+000  0.00000000000E+000
                    0.93414398785E-001  0.00000000000E+000 -0.11280000000E+003  0.00000000000E+000  0.00000000000E+000 -0.61616749736E-013 -0.61617364353E-018  0.00000000000E+000  0.00000000000E+000  0.00000000000E+000  0.00000000000E+000
                    0.93414398785E-001  0.00000000000E+000 -0.12480000000E+003  0.00000000000E+000  0.00000000000E+000  0.49464507882E-013  0.49465001282E-018  0.00000000000E+000  0.00000000000E+000  0.00000000000E+000  0.00000000000E+000
                    0.93414398785E-001  0.00000000000E+000 -0.14880000000E+003  0.00000000000E+000  0.00000000000E+000 -0.99583394231E-013 -0.99584387560E-018  0.00000000000E+000  0.00000000000E+000  0.00000000000E+000  0.00000000000E+000
                    0.93414398785E-001  0.00000000000E+000 -0.19680000000E+003  0.00000000000E+000  0.00000000000E+000  0.00000000000E+000  0.00000000000E+000  0.00000000000E+000  0.00000000000E+000  0.00000000000E+000  0.00000000000E+000
                    0.10466353370E+000  0.00000000000E+000 -0.50000000000E-005  0.00000000000E+000  0.00000000000E+000  0.00000000000E+000  0.00000000000E+000  0.00000000000E+000  0.00000000000E+000  0.00000000000E+000  0.00000000000E+000
                    0.10466353370E+000  0.00000000000E+000 -0.10000000000E+000 -0.21201665513E-010 -0.27787179233E-008 -0.15316070756E-012 -0.24645467591E-017  0.49963796314E-012 -0.49963796314E-012  0.31860848017E-026 -0.31860911415E-026
                    0.10466353370E+000  0.00000000000E+000 -0.30000000000E+000 -0.16971608721E-011 -0.22242960072E-009 -0.10624293858E-012 -0.17096170905E-017 -0.20902839681E-013  0.20902839681E-013  0.34101583813E-027 -0.34096358076E-027
                    0.10466353370E+000  0.00000000000E+000 -0.50000000000E+000 -0.17960661347E-012 -0.23540294353E-010 -0.13715259449E-012 -0.22070533506E-017  0.62219292849E-013 -0.62219292849E-013  0.73804010087E-028 -0.73819805703E-028
                    0.10466353370E+000  0.00000000000E+000 -0.70000000000E+000 -0.64664295763E-013 -0.84769884540E-011 -0.12907566159E-016 -0.20771322111E-021  0.11729078718E-011 -0.11729078718E-011  0.62937946163E-027 -0.62931881460E-027
                    0.10466353370E+000  0.00000000000E+000 -0.90000000000E+000  0.24130200839E-012  0.31660544123E-010  0.11143559402E-016  0.17933218392E-021  0.20420501402E-010 -0.20420501402E-010  0.12804742472E-025 -0.12804731907E-025
                    0.10466353370E+000  0.00000000000E+000 -0.60000000000E+001  0.99272025752E-009  0.14064632923E-006  0.20668474613E-011  0.33310670940E-016  0.14037148590E-006 -0.14037148590E-006  0.19417131382E-020 -0.19417132331E-020
                    0.10466353370E+000  0.00000000000E+000 -0.16000000000E+002  0.94920038953E-009  0.13435548683E-006  0.52005487576E-010  0.83913506887E-015  0.13400630353E-006 -0.13400630353E-006  0.51075994226E-019 -0.51075992378E-019
                    0.10466353370E+000  0.00000000000E+000 -0.26000000000E+002  0.35850164923E-009  0.50447867156E-007  0.81402917655E-007  0.13149522893E-011  0.50107388622E-007 -0.50107388622E-007  0.28388256371E-016 -0.28388255317E-016
                    0.10466353370E+000  0.00000000000E+000 -0.36000000000E+002  0.00000000000E+000  0.00000000000E+000  0.52009242972E-007  0.15302524081E-011  0.00000000000E+000 -0.00000000000E+000  0.79277322165E-015 -0.79277328657E-015
                    0.10466353370E+000  0.00000000000E+000 -0.46000000000E+002  0.00000000000E+000  0.00000000000E+000  0.45812707744E-007  0.20679132884E-011  0.00000000000E+000 -0.00000000000E+000  0.90203055115E-015 -0.90203061953E-015
                    0.10466353370E+000  0.00000000000E+000 -0.56000000000E+002  0.00000000000E+000  0.00000000000E+000  0.67193196049E-008  0.72315629569E-013  0.00000000000E+000  0.00000000000E+000  0.24350561095E-020 -0.24724443420E-020
                    0.10466353370E+000  0.00000000000E+000 -0.66000000000E+002  0.00000000000E+000  0.00000000000E+000  0.94314305213E-008  0.94419683246E-013  0.00000000000E+000  0.00000000000E+000  0.00000000000E+000 -0.83782980489E-022
                    0.10466353370E+000  0.00000000000E+000 -0.76000000000E+002  0.00000000000E+000  0.00000000000E+000  0.84728525470E-008  0.84730380131E-013  0.00000000000E+000  0.00000000000E+000  0.00000000000E+000  0.14640731341E-023
                    0.10466353370E+000  0.00000000000E+000 -0.86000000000E+002  0.00000000000E+000  0.00000000000E+000  0.10247879653E-007  0.10247982806E-012  0.00000000000E+000  0.00000000000E+000  0.00000000000E+000  0.13024866714E-023
                    0.10466353370E+000  0.00000000000E+000 -0.96000000000E+002  0.00000000000E+000  0.00000000000E+000  0.93760340715E-008  0.93761275959E-013  0.00000000000E+000  0.00000000000E+000  0.00000000000E+000  0.16983225884E-023
                    0.10466353370E+000  0.00000000000E+000 -0.10110000000E+003  0.00000000000E+000  0.00000000000E+000 -0.20776070730E-008 -0.20776277968E-013  0.00000000000E+000  0.00000000000E+000  0.00000000000E+000 -0.46448222943E-027
                    0.10466353370E+000  0.00000000000E+000 -0.10150000000E+003  0.00000000000E+000  0.00000000000E+000 -0.36931644400E-009 -0.36932012787E-014  0.00000000000E+000  0.00000000000E+000  0.00000000000E+000 -0.18579236942E-027
                    0.10466353370E+000  0.00000000000E+000 -0.10230000000E+003  0.00000000000E+000  0.00000000000E+000 -0.47018180515E-010 -0.47018649513E-015  0.00000000000E+000  0.00000000000E+000  0.00000000000E+000  0.00000000000E+000
                    0.10466353370E+000  0.00000000000E+000 -0.10380000000E+003  0.00000000000E+000  0.00000000000E+000 -0.30419438369E-011 -0.30419741798E-016  0.00000000000E+000  0.00000000000E+000  0.00000000000E+000  0.00000000000E+000
                    0.10466353370E+000  0.00000000000E+000 -0.10680000000E+003  0.00000000000E+000  0.00000000000E+000 -0.10636699638E-012 -0.10636805737E-017  0.00000000000E+000  0.00000000000E+000  0.00000000000E+000  0.00000000000E+000
                    0.10466353370E+000  0.00000000000E+000 -0.11280000000E+003  0.00000000000E+000  0.00000000000E+000 -0.60320530654E-013 -0.60321132342E-018  0.00000000000E+000  0.00000000000E+000  0.00000000000E+000  0.00000000000E+000
                    0.10466353370E+000  0.00000000000E+000 -0.12480000000E+003  0.00000000000E+000  0.00000000000E+000 -0.16136524430E-013 -0.16136685389E-018  0.00000000000E+000  0.00000000000E+000  0.00000000000E+000  0.00000000000E+000
                    0.10466353370E+000  0.00000000000E+000 -0.14880000000E+003  0.00000000000E+000  0.00000000000E+000 -0.97469948133E-013 -0.97470920379E-018  0.00000000000E+000  0.00000000000E+000  0.00000000000E+000  0.00000000000E+000
                    0.10466353370E+000  0.00000000000E+000 -0.19680000000E+003  0.00000000000E+000  0.00000000000E+000  0.00000000000E+000  0.00000000000E+000  0.00000000000E+000  0.00000000000E+000  0.00000000000E+000  0.00000000000E+000
                    0.11753466860E+000  0.00000000000E+000 -0.50000000000E-005  0.00000000000E+000  0.00000000000E+000  0.00000000000E+000  0.00000000000E+000  0.00000000000E+000  0.00000000000E+000  0.00000000000E+000  0.00000000000E+000
                    0.11753466860E+000  0.00000000000E+000 -0.10000000000E+000 -0.19685514566E-010 -0.25800063649E-008 -0.75340267862E-013 -0.12123183918E-017  0.49732715183E-012 -0.49732715183E-012  0.29615740823E-026 -0.29615935532E-026
                    0.11753466860E+000  0.00000000000E+000 -0.30000000000E+000 -0.19806466322E-011 -0.25958320576E-009 -0.10417625129E-012 -0.16763607718E-017 -0.29765905389E-014  0.29765905389E-014  0.40431015912E-027 -0.40435526082E-027
                    0.11753466860E+000  0.00000000000E+000 -0.50000000000E+000 -0.24804627823E-012 -0.32510393066E-010 -0.13449212691E-012 -0.21642412162E-017  0.15025273199E-012 -0.15025273199E-012  0.12847883354E-027 -0.12847015002E-027
                    0.11753466860E+000  0.00000000000E+000 -0.70000000000E+000 -0.70368155470E-013 -0.92246964052E-011 -0.16664390275E-012 -0.26816938427E-017  0.18382519383E-011 -0.18382519383E-011  0.97553770756E-027 -0.97554979541E-027
                    0.11753466860E+000  0.00000000000E+000 -0.90000000000E+000  0.26141740703E-012  0.34298056932E-010 -0.20115177364E-012 -0.32371153205E-017  0.22911936014E-010 -0.22911936014E-010  0.14365605256E-025 -0.14365587892E-025
                    0.11753466860E+000  0.00000000000E+000 -0.60000000000E+001  0.10015519904E-008  0.14091460042E-006  0.21164991794E-011  0.34108237396E-016  0.14037121460E-006 -0.14037121460E-006  0.19410460328E-020 -0.19410459722E-020
                    0.11753466860E+000  0.00000000000E+000 -0.16000000000E+002  0.95811562262E-009  0.13466494751E-006  0.57276347078E-010  0.92411012313E-015  0.13402168984E-006 -0.13402168984E-006  0.51064095792E-019 -0.51064094777E-019
                    0.11753466860E+000  0.00000000000E+000 -0.26000000000E+002  0.36294917691E-009  0.50734201819E-007  0.39962816304E-007  0.64549589633E-012  0.50140824278E-007 -0.50140824278E-007  0.28397603422E-016 -0.28397603718E-016
                    0.11753466860E+000  0.00000000000E+000 -0.36000000000E+002  0.00000000000E+000  0.00000000000E+000  0.77209008215E-007  0.22716155150E-011  0.00000000000E+000 -0.00000000000E+000  0.76659389575E-015 -0.76659389115E-015
                    0.11753466860E+000  0.00000000000E+000 -0.46000000000E+002  0.00000000000E+000  0.00000000000E+000  0.64748448492E-007  0.29225686696E-011  0.00000000000E+000 -0.00000000000E+000  0.88103354742E-015 -0.88103351440E-015
                    0.11753466860E+000  0.00000000000E+000 -0.56000000000E+002  0.00000000000E+000  0.00000000000E+000  0.11376897141E-007  0.12244208156E-012  0.00000000000E+000  0.00000000000E+000  0.26280529788E-020 -0.25301994770E-020
                    0.11753466860E+000  0.00000000000E+000 -0.66000000000E+002  0.00000000000E+000  0.00000000000E+000  0.14304669013E-007  0.14320651719E-012  0.00000000000E+000  0.00000000000E+000  0.11946205927E-021 -0.84115245436E-022
                    0.11753466860E+000  0.00000000000E+000 -0.76000000000E+002  0.00000000000E+000  0.00000000000E+000  0.13785898043E-007  0.13786199808E-012  0.00000000000E+000  0.00000000000E+000  0.00000000000E+000 -0.35948068778E-023
                    0.11753466860E+000  0.00000000000E+000 -0.86000000000E+002  0.00000000000E+000  0.00000000000E+000  0.15859742314E-007  0.15859901954E-012  0.00000000000E+000  0.00000000000E+000  0.00000000000E+000 -0.27691402759E-023
                    0.11753466860E+000  0.00000000000E+000 -0.96000000000E+002  0.00000000000E+000  0.00000000000E+000  0.14601805850E-007  0.14601951501E-012  0.00000000000E+000  0.00000000000E+000  0.00000000000E+000  0.14949255587E-024
                    0.11753466860E+000  0.00000000000E+000 -0.10110000000E+003  0.00000000000E+000  0.00000000000E+000 -0.23338695119E-008 -0.23338927919E-013  0.00000000000E+000  0.00000000000E+000  0.00000000000E+000 -0.20504934292E-026
                    0.11753466860E+000  0.00000000000E+000 -0.10150000000E+003  0.00000000000E+000  0.00000000000E+000 -0.45198919763E-009 -0.45199370615E-014  0.00000000000E+000  0.00000000000E+000  0.00000000000E+000 -0.82019510984E-027
                    0.11753466860E+000  0.00000000000E+000 -0.10230000000E+003  0.00000000000E+000  0.00000000000E+000 -0.58788482817E-010 -0.58789069222E-015  0.00000000000E+000  0.00000000000E+000  0.00000000000E+000  0.18228981819E-027
                    0.11753466860E+000  0.00000000000E+000 -0.10380000000E+003  0.00000000000E+000  0.00000000000E+000 -0.38134761303E-011 -0.38135141691E-016  0.00000000000E+000  0.00000000000E+000  0.00000000000E+000 -0.36458162673E-027
                    0.11753466860E+000  0.00000000000E+000 -0.10680000000E+003  0.00000000000E+000  0.00000000000E+000 -0.12998002333E-012 -0.12998131986E-017  0.00000000000E+000  0.00000000000E+000  0.00000000000E+000 -0.72917127828E-027
                    0.11753466860E+000  0.00000000000E+000 -0.11280000000E+003  0.00000000000E+000  0.00000000000E+000 -0.63126682787E-013 -0.63127312466E-018  0.00000000000E+000  0.00000000000E+000  0.00000000000E+000  0.00000000000E+000
                    0.11753466860E+000  0.00000000000E+000 -0.12480000000E+003  0.00000000000E+000  0.00000000000E+000 -0.63360505630E-013 -0.63361137641E-018  0.00000000000E+000  0.00000000000E+000  0.00000000000E+000  0.00000000000E+000
                    0.11753466860E+000  0.00000000000E+000 -0.14880000000E+003  0.00000000000E+000  0.00000000000E+000 -0.12751884317E-012 -0.12752011515E-017  0.00000000000E+000  0.00000000000E+000  0.00000000000E+000  0.00000000000E+000