        VARIABLES=                 X                 Y                 Z              HEAT      FLOW_WATER_G        FLOW_AIR_G      FLOW_WATER_L        FLOW_AIR_L     FDIFF_WATER_G       FDIFF_AIR_G     FDIFF_WATER_L       FDIFF_AIR_L
 ZONE T=" 0.3153570E+08 SEC"  I =     2419 
                    0.74998205398E-001  0.00000000000E+000 -0.25000000000E+000  0.46261068461E-003 -0.11641553748E-010 -0.11124015863E-008  0.00000000000E+000  0.00000000000E+000  0.97985061453E-009 -0.97985061453E-009  0.00000000000E+000 -0.00000000000E+000
                    0.74998205398E-001  0.00000000000E+000 -0.75000000000E+000  0.19095129646E-001  0.70047198564E-011  0.69383550833E-009 -0.23494210780E-012 -0.37661879570E-017  0.62512899984E-009 -0.62512899984E-009  0.00000000000E+000 -0.00000000000E+000
                    0.37597140865E-001  0.00000000000E+000 -0.15000000000E+001  0.82412912863E+001  0.00000000000E+000  0.00000000000E+000  0.00000000000E+000  0.00000000000E+000 -0.11194245063E-011  0.11194245063E-011 -0.23225688517E-019  0.23225688524E-019
                    0.37597140865E-001  0.00000000000E+000 -0.27500000000E+001  0.12337433112E+002  0.00000000000E+000  0.00000000000E+000  0.00000000000E+000  0.00000000000E+000 -0.17006921726E-011  0.17006921726E-011 -0.40017085275E-019  0.40017085272E-019
                    0.37597140865E-001  0.00000000000E+000 -0.47500000000E+001  0.20572935175E+002  0.00000000000E+000  0.00000000000E+000  0.00000000000E+000  0.00000000000E+000 -0.28304169636E-011  0.28304169636E-011 -0.93669901486E-019  0.93669901498E-019
                    0.37597140865E-001  0.00000000000E+000 -0.85000000000E+001  0.41132482602E+002  0.00000000000E+000  0.00000000000E+000  0.00000000000E+000  0.00000000000E+000 -0.55964962123E-011  0.55964962123E-011 -0.30344645236E-018  0.30344645259E-018
                    0.37597140865E-001  0.00000000000E+000 -0.13500000000E+002  0.39837991768E+002  0.00000000000E+000  0.00000000000E+000  0.00000000000E+000  0.00000000000E+000 -0.59779281954E-011  0.59779281954E-011 -0.67623273773E-018  0.67623273794E-018
                    0.37597140865E-001  0.00000000000E+000 -0.18500000000E+002  0.39556863315E+002  0.00000000000E+000  0.00000000000E+000  0.00000000000E+000  0.00000000000E+000 -0.56646822857E-011  0.56646822857E-011 -0.31972203114E-017  0.31972203092E-017
                    0.37597140865E-001  0.00000000000E+000 -0.23500000000E+002  0.48579256461E+002  0.00000000000E+000  0.00000000000E+000  0.00000000000E+000  0.00000000000E+000 -0.67768491158E-011  0.67768491158E-011 -0.98705934601E-017  0.98705934658E-017
                    0.37597140865E-001  0.00000000000E+000 -0.28500000000E+002  0.45245154455E+002  0.00000000000E+000  0.00000000000E+000  0.00000000000E+000  0.00000000000E+000 -0.42533774529E-011  0.42533774529E-011 -0.71720662905E-017  0.71720662978E-017
                    0.37597140865E-001  0.00000000000E+000 -0.33500000000E+002  0.58151863014E+002  0.00000000000E+000  0.00000000000E+000  0.00000000000E+000  0.00000000000E+000 -0.00000000000E+000  0.00000000000E+000 -0.22597769298E-015  0.22597769297E-015
                    0.37597140865E-001  0.00000000000E+000 -0.38500000000E+002  0.58094657224E+002  0.00000000000E+000  0.00000000000E+000  0.00000000000E+000  0.00000000000E+000 -0.00000000000E+000  0.00000000000E+000 -0.46176285679E-015  0.46176285679E-015
                    0.37597140865E-001  0.00000000000E+000 -0.42250000000E+002  0.28522059690E+002  0.00000000000E+000  0.00000000000E+000  0.00000000000E+000  0.00000000000E+000 -0.00000000000E+000  0.00000000000E+000 -0.39405702326E-015  0.39405702327E-015
                    0.37597140865E-001  0.00000000000E+000 -0.44250000000E+002  0.17096164016E+002  0.00000000000E+000  0.00000000000E+000  0.00000000000E+000  0.00000000000E+000 -0.00000000000E+000  0.00000000000E+000 -0.30211127019E-015  0.30211127019E-015
                    0.37597140865E-001  0.00000000000E+000 -0.45500000000E+002  0.11387851722E+002  0.00000000000E+000  0.00000000000E+000  0.00000000000E+000  0.00000000000E+000 -0.00000000000E+000  0.00000000000E+000 -0.22625014902E-015  0.22625014902E-015
                    0.37597140865E-001  0.00000000000E+000 -0.46500000000E+002  0.11381856529E+002  0.00000000000E+000  0.00000000000E+000  0.00000000000E+000  0.00000000000E+000 -0.00000000000E+000  0.00000000000E+000 -0.24352183850E-015  0.24352183850E-015
                    0.37597140865E-001  0.00000000000E+000 -0.47500000000E+002  0.11374726081E+002  0.00000000000E+000  0.00000000000E+000  0.00000000000E+000  0.00000000000E+000 -0.00000000000E+000  0.00000000000E+000 -0.25979464476E-015  0.25979464476E-015
                    0.37597140865E-001  0.00000000000E+000 -0.48500000000E+002  0.11375135984E+002  0.00000000000E+000  0.00000000000E+000  0.00000000000E+000  0.00000000000E+000 -0.00000000000E+000  0.00000000000E+000 -0.27495792047E-015  0.27495792046E-015
                    0.37597140865E-001  0.00000000000E+000 -0.49500000000E+002  0.11374846337E+002  0.00000000000E+000  0.00000000000E+000  0.00000000000E+000  0.00000000000E+000 -0.00000000000E+000  0.00000000000E+000 -0.29167694292E-015  0.29167694292E-015
                    0.37597140865E-001  0.00000000000E+000 -0.50500000000E+002  0.11366264214E+002  0.00000000000E+000  0.00000000000E+000  0.00000000000E+000  0.00000000000E+000 -0.00000000000E+000  0.00000000000E+000 -0.31164623430E-015  0.31164623430E-015
                    0.37597140865E-001  0.00000000000E+000 -0.51500000000E+002  0.11294970070E+002  0.00000000000E+000  0.00000000000E+000  0.00000000000E+000  0.00000000000E+000 -0.00000000000E+000 -0.00000000000E+000 -0.50361544154E-015  0.50361544156E-015
                    0.37597140865E-001  0.00000000000E+000 -0.52500000000E+002  0.11295427838E+002  0.00000000000E+000  0.00000000000E+000  0.00000000000E+000  0.00000000000E+000 -0.00000000000E+000 -0.00000000000E+000 -0.25784714198E-015  0.25784714196E-015
                    0.37597140865E-001  0.00000000000E+000 -0.53500000000E+002  0.11285480408E+002  0.00000000000E+000  0.00000000000E+000  0.00000000000E+000  0.00000000000E+000  0.00000000000E+000  0.00000000000E+000 -0.44702107504E-016  0.44702107473E-016
                    0.37597140865E-001  0.00000000000E+000 -0.54500000000E+002  0.11295412849E+002  0.00000000000E+000  0.00000000000E+000  0.00000000000E+000  0.00000000000E+000  0.00000000000E+000  0.00000000000E+000 -0.51668826529E-017  0.51668826491E-017
                    0.37597140865E-001  0.00000000000E+000 -0.55500000000E+002  0.11288749035E+002  0.00000000000E+000  0.00000000000E+000  0.00000000000E+000  0.00000000000E+000  0.00000000000E+000  0.00000000000E+000 -0.89598985978E-018  0.89598985123E-018
                    0.37597140865E-001  0.00000000000E+000 -0.56500000000E+002  0.11289347406E+002  0.00000000000E+000  0.00000000000E+000  0.00000000000E+000  0.00000000000E+000  0.00000000000E+000  0.00000000000E+000 -0.12147048306E-018  0.12147050002E-018
                    0.37597140865E-001  0.00000000000E+000 -0.57750000000E+002  0.16929366246E+002  0.00000000000E+000  0.00000000000E+000  0.00000000000E+000  0.00000000000E+000  0.00000000000E+000  0.00000000000E+000 -0.14367548000E-019  0.14367527561E-019
                    0.37597140865E-001  0.00000000000E+000 -0.59750000000E+002  0.28237609584E+002  0.00000000000E+000  0.00000000000E+000  0.00000000000E+000  0.00000000000E+000  0.00000000000E+000  0.00000000000E+000 -0.72351260406E-021  0.72355989330E-021
                    0.37597140865E-001  0.00000000000E+000 -0.63500000000E+002  0.55790191066E+002  0.00000000000E+000  0.00000000000E+000  0.00000000000E+000  0.00000000000E+000  0.00000000000E+000  0.00000000000E+000 -0.38593909656E-022  0.38696695939E-022
                    0.37597140865E-001  0.00000000000E+000 -0.68500000000E+002  0.55753062542E+002  0.00000000000E+000  0.00000000000E+000  0.00000000000E+000  0.00000000000E+000  0.00000000000E+000  0.00000000000E+000  0.28424152915E-022 -0.28447382700E-022
                    0.37597140865E-001  0.00000000000E+000 -0.76000000000E+002  0.11089492462E+003  0.00000000000E+000  0.00000000000E+000  0.00000000000E+000  0.00000000000E+000  0.00000000000E+000  0.00000000000E+000 -0.67799354613E-023  0.71948082916E-023
                    0.37597140865E-001  0.00000000000E+000 -0.86000000000E+002  0.11067277924E+003  0.00000000000E+000  0.00000000000E+000  0.00000000000E+000  0.00000000000E+000  0.00000000000E+000  0.00000000000E+000  0.41201859802E-022 -0.41156243930E-022
                    0.37597140865E-001  0.00000000000E+000 -0.93500000000E+002  0.59268533641E+002  0.00000000000E+000  0.00000000000E+000  0.00000000000E+000  0.00000000000E+000  0.00000000000E+000  0.00000000000E+000  0.14342731555E-022 -0.14208192843E-022
                    0.37597140865E-001  0.00000000000E+000 -0.97500000000E+002  0.35556225851E+002  0.00000000000E+000  0.00000000000E+000  0.00000000000E+000  0.00000000000E+000  0.00000000000E+000  0.00000000000E+000 -0.10486007421E-022  0.10632585208E-022
                    0.37597140865E-001  0.00000000000E+000 -0.10000000000E+003  0.23629886891E+002  0.00000000000E+000  0.00000000000E+000  0.00000000000E+000  0.00000000000E+000  0.00000000000E+000  0.00000000000E+000 -0.23158742031E-022  0.23143066217E-022
                    0.74998205398E-001  0.00000000000E+000 -0.10200000000E+003  0.68401776367E-001  0.00000000000E+000  0.00000000000E+000 -0.49454264941E-008 -0.49454758334E-013  0.00000000000E+000  0.00000000000E+000  0.50320971410E-023 -0.49954713119E-023
                    0.74998205398E-001  0.00000000000E+000 -0.10500000000E+003  0.18427973814E-002  0.00000000000E+000  0.00000000000E+000 -0.32603371346E-009 -0.32603696685E-014  0.00000000000E+000  0.00000000000E+000  0.40252920413E-022 -0.34443100251E-022
                    0.74998205398E-001  0.00000000000E+000 -0.11100000000E+003  0.30735819597E-004  0.00000000000E+000  0.00000000000E+000 -0.13645637764E-010 -0.13645773820E-015  0.00000000000E+000  0.00000000000E+000 -0.40250772648E-022  0.30816076542E-022
                    0.74998205398E-001  0.00000000000E+000 -0.12300000000E+003  0.17096578132E-006  0.00000000000E+000  0.00000000000E+000 -0.15405438267E-012 -0.15405592142E-017  0.00000000000E+000  0.00000000000E+000  0.64400583250E-021 -0.61269965221E-021
                    0.74998205398E-001  0.00000000000E+000 -0.14700000000E+003 -0.27007280604E-008  0.00000000000E+000  0.00000000000E+000 -0.40517031937E-013 -0.40517435900E-018  0.00000000000E+000  0.00000000000E+000 -0.24150458596E-021  0.23202904898E-021
                    0.74998205398E-001  0.00000000000E+000 -0.19500000000E+003  0.44323288060E-003  0.00000000000E+000  0.00000000000E+000  0.52819163854E-008  0.52819690280E-013  0.00000000000E+000  0.00000000000E+000 -0.16100494424E-020  0.16242297484E-020
                    0.83584331342E-001  0.00000000000E+000 -0.25000000000E+000  0.21124728207E-002 -0.21568632506E-010 -0.20548104622E-008  0.00000000000E+000  0.00000000000E+000  0.96473158673E-011 -0.96473158673E-011  0.00000000000E+000 -0.00000000000E+000
                    0.83584331342E-001  0.00000000000E+000 -0.75000000000E+000  0.36222031767E-001  0.18036532825E-011  0.17864332740E-009  0.25448980046E-009  0.40794080295E-014  0.11707382199E-009 -0.11707382199E-009  0.00000000000E+000 -0.00000000000E+000
                    0.83584331342E-001  0.00000000000E+000 -0.15000000000E+001  0.86289354484E+001  0.17426618117E-009  0.21387438852E-007 -0.24889312302E-007 -0.40027180114E-012  0.21676980551E-007 -0.21676980551E-007  0.22851030388E-021 -0.22851031386E-021
                    0.83584331342E-001  0.00000000000E+000 -0.27500000000E+001  0.12945116988E+002  0.24275038667E-009  0.30907781199E-007 -0.36479345651E-007 -0.58701151570E-012  0.31344652823E-007 -0.31344652823E-007  0.39240084595E-021 -0.39240083319E-021
                    0.83584331342E-001  0.00000000000E+000 -0.47500000000E+001  0.21586780151E+002  0.39777473515E-009  0.50886232017E-007 -0.62286694227E-007 -0.10025649381E-011  0.51610163212E-007 -0.51610163212E-007  0.97429469883E-021 -0.97429471191E-021
                    0.83584331342E-001  0.00000000000E+000 -0.85000000000E+001  0.43159621906E+002  0.79189951209E-009  0.10082257403E-006 -0.12732649265E-006 -0.20501491012E-011  0.10226039824E-006 -0.10226039824E-006  0.33773389715E-020 -0.33773390928E-020
                    0.83584331342E-001  0.00000000000E+000 -0.13500000000E+002  0.42114474289E+002  0.76375144727E-009  0.96293582368E-007 -0.12660692220E-006 -0.20394267914E-011  0.97893270395E-007 -0.97893270395E-007  0.81613055948E-020 -0.81613056981E-020
                    0.83584331342E-001  0.00000000000E+000 -0.18500000000E+002  0.41818631693E+002  0.71587002233E-009  0.88443775392E-007 -0.11066534601E-006 -0.17831657588E-011  0.89991512610E-007 -0.89991512610E-007  0.54922009759E-019 -0.54922006868E-019
                    0.83584331342E-001  0.00000000000E+000 -0.23500000000E+002  0.51509987178E+002  0.63366714810E-009  0.80945920721E-007 -0.95006150473E-007 -0.15323700669E-011  0.82782970630E-007 -0.82782970630E-007  0.76210352119E-018 -0.76210354173E-018
                    0.83584331342E-001  0.00000000000E+000 -0.28500000000E+002  0.48147788260E+002  0.62557963858E-010  0.71995244328E-008 -0.28281655373E-007 -0.45578998788E-012  0.79802401408E-008 -0.79802401408E-008  0.75095334847E-016 -0.75095335989E-016
                    0.83584331342E-001  0.00000000000E+000 -0.33500000000E+002  0.62196784810E+002  0.00000000000E+000  0.00000000000E+000 -0.18389558757E-006 -0.42179222374E-011  0.00000000000E+000 -0.00000000000E+000  0.30538951450E-015 -0.30538951776E-015
                    0.83584331342E-001  0.00000000000E+000 -0.38500000000E+002  0.62148966718E+002  0.00000000000E+000  0.00000000000E+000 -0.15876703398E-006 -0.48850145786E-011  0.00000000000E+000 -0.00000000000E+000  0.14307363351E-015 -0.14307363350E-015
                    0.83584331342E-001  0.00000000000E+000 -0.42250000000E+002  0.30591371625E+002  0.00000000000E+000  0.00000000000E+000 -0.67616517025E-007 -0.24767217821E-011  0.00000000000E+000 -0.00000000000E+000 -0.53742519427E-016  0.53742508338E-016
                    0.83584331342E-001  0.00000000000E+000 -0.44250000000E+002  0.18339239452E+002  0.00000000000E+000  0.00000000000E+000 -0.36063087043E-007 -0.14335688618E-011  0.00000000000E+000 -0.00000000000E+000 -0.85554868951E-016  0.85554868885E-016
                    0.83584331342E-001  0.00000000000E+000 -0.45500000000E+002  0.12216220791E+002  0.00000000000E+000  0.00000000000E+000 -0.22447152799E-007 -0.93616596991E-012  0.00000000000E+000 -0.00000000000E+000 -0.76117838010E-016  0.76117837113E-016
                    0.83584331342E-001  0.00000000000E+000 -0.46500000000E+002  0.12209829797E+002  0.00000000000E+000  0.00000000000E+000 -0.21551839244E-007 -0.93257505802E-012  0.00000000000E+000 -0.00000000000E+000 -0.89379432870E-016  0.89379441208E-016
                    0.83584331342E-001  0.00000000000E+000 -0.47500000000E+002  0.12201720999E+002  0.00000000000E+000  0.00000000000E+000 -0.20910580660E-007 -0.93761971860E-012  0.00000000000E+000 -0.00000000000E+000 -0.10142276851E-015  0.10142276354E-015
                    0.83584331342E-001  0.00000000000E+000 -0.48500000000E+002  0.12202809916E+002  0.00000000000E+000  0.00000000000E+000 -0.20400663990E-007 -0.94676458052E-012  0.00000000000E+000 -0.00000000000E+000 -0.11269564460E-015  0.11269564937E-015
                    0.83584331342E-001  0.00000000000E+000 -0.49500000000E+002  0.12203081897E+002  0.00000000000E+000  0.00000000000E+000 -0.19895864332E-007 -0.95455738219E-012  0.00000000000E+000 -0.00000000000E+000 -0.12443585989E-015  0.12443585995E-015
                    0.83584331342E-001  0.00000000000E+000 -0.50500000000E+002  0.12193723813E+002  0.00000000000E+000  0.00000000000E+000 -0.18788528905E-007 -0.93082118479E-012  0.00000000000E+000 -0.00000000000E+000 -0.14083353981E-015  0.14083353772E-015
                    0.83584331342E-001  0.00000000000E+000 -0.51500000000E+002  0.12137529148E+002  0.00000000000E+000  0.00000000000E+000 -0.89599269740E-008 -0.23257902770E-012  0.00000000000E+000  0.00000000000E+000  0.27463325465E-015 -0.27463325766E-015
                    0.83584331342E-001  0.00000000000E+000 -0.52500000000E+002  0.12137995706E+002  0.00000000000E+000  0.00000000000E+000 -0.90444597436E-008 -0.13403675111E-012  0.00000000000E+000  0.00000000000E+000  0.14441586971E-015 -0.14441586496E-015
                    0.83584331342E-001  0.00000000000E+000 -0.53500000000E+002  0.12126193673E+002  0.00000000000E+000  0.00000000000E+000 -0.90491952676E-008 -0.10013405480E-012  0.00000000000E+000  0.00000000000E+000  0.71941987031E-016 -0.71941976675E-016
                    0.83584331342E-001  0.00000000000E+000 -0.54500000000E+002  0.12138043963E+002  0.00000000000E+000  0.00000000000E+000 -0.90842125918E-008 -0.92478680029E-013  0.00000000000E+000  0.00000000000E+000  0.17910827633E-016 -0.17910826894E-016
                    0.83584331342E-001  0.00000000000E+000 -0.55500000000E+002  0.12130298928E+002  0.00000000000E+000  0.00000000000E+000 -0.90864006341E-008 -0.91085684558E-013  0.00000000000E+000  0.00000000000E+000  0.32311060129E-017 -0.32311028962E-017
                    0.83584331342E-001  0.00000000000E+000 -0.56500000000E+002  0.12131010532E+002  0.00000000000E+000  0.00000000000E+000 -0.91011829363E-008 -0.91037683554E-013  0.00000000000E+000  0.00000000000E+000  0.45535442934E-018 -0.45536354021E-018
                    0.83584331342E-001  0.00000000000E+000 -0.57750000000E+002  0.18190638406E+002  0.00000000000E+000  0.00000000000E+000 -0.13661445719E-007 -0.13661800354E-012  0.00000000000E+000  0.00000000000E+000  0.57965570836E-019 -0.57964951347E-019
                    0.83584331342E-001  0.00000000000E+000 -0.59750000000E+002  0.30343078192E+002  0.00000000000E+000  0.00000000000E+000 -0.22873084435E-007 -0.22873320439E-012  0.00000000000E+000  0.00000000000E+000  0.10539845515E-019 -0.10536716953E-019
                    0.83584331342E-001  0.00000000000E+000 -0.63500000000E+002  0.59999150502E+002  0.00000000000E+000  0.00000000000E+000 -0.46073265425E-007 -0.46073725061E-012  0.00000000000E+000  0.00000000000E+000  0.63685539708E-022 -0.90170973436E-022
                    0.83584331342E-001  0.00000000000E+000 -0.68500000000E+002  0.59954479112E+002  0.00000000000E+000  0.00000000000E+000 -0.46331074081E-007 -0.46331536578E-012  0.00000000000E+000  0.00000000000E+000 -0.37575091629E-020  0.37635069911E-020
                    0.83584331342E-001  0.00000000000E+000 -0.76000000000E+002  0.11930104325E+003  0.00000000000E+000  0.00000000000E+000 -0.93594271292E-007 -0.93595204863E-012  0.00000000000E+000  0.00000000000E+000 -0.81520972228E-020  0.81334055116E-020
                    0.83584331342E-001  0.00000000000E+000 -0.86000000000E+002  0.11911570907E+003  0.00000000000E+000  0.00000000000E+000 -0.94873627480E-007 -0.94874574058E-012  0.00000000000E+000  0.00000000000E+000 -0.42035800971E-020  0.42449980401E-020
                    0.83584331342E-001  0.00000000000E+000 -0.93500000000E+002  0.63704854095E+002  0.00000000000E+000  0.00000000000E+000 -0.49097295647E-007 -0.49097785384E-012  0.00000000000E+000  0.00000000000E+000 -0.17197301448E-020  0.17323841379E-020
                    0.83584331342E-001  0.00000000000E+000 -0.97500000000E+002  0.38215943311E+002  0.00000000000E+000  0.00000000000E+000 -0.30545803611E-007 -0.30546108568E-012  0.00000000000E+000  0.00000000000E+000 -0.49692821086E-021  0.48988813013E-021
                    0.83584331342E-001  0.00000000000E+000 -0.10000000000E+003  0.25385550926E+002  0.00000000000E+000  0.00000000000E+000 -0.22257410524E-007 -0.22257632644E-012  0.00000000000E+000  0.00000000000E+000  0.13751597189E-020 -0.13770221785E-020
                    0.83584331342E-001  0.00000000000E+000 -0.10200000000E+003  0.84454238806E-001  0.00000000000E+000  0.00000000000E+000 -0.58790389099E-008 -0.58790975635E-013  0.00000000000E+000  0.00000000000E+000  0.00000000000E+000 -0.68337682810E-023
                    0.83584331342E-001  0.00000000000E+000 -0.10500000000E+003  0.22846897522E-002  0.00000000000E+000  0.00000000000E+000 -0.40424127376E-009 -0.40424530754E-014  0.00000000000E+000  0.00000000000E+000  0.50923877206E-022 -0.45869253469E-022
                    0.83584331342E-001  0.00000000000E+000 -0.11100000000E+003  0.38239040262E-004  0.00000000000E+000  0.00000000000E+000 -0.16938997974E-010 -0.16939166867E-015  0.00000000000E+000  0.00000000000E+000  0.00000000000E+000  0.36684091113E-022
                    0.83584331342E-001  0.00000000000E+000 -0.12300000000E+003  0.20748610157E-006  0.00000000000E+000  0.00000000000E+000 -0.19233986810E-012 -0.19234178922E-017  0.00000000000E+000  0.00000000000E+000  0.61097501788E-021 -0.75209331691E-021
                    0.83584331342E-001  0.00000000000E+000 -0.14700000000E+003 -0.18578066848E-008  0.00000000000E+000  0.00000000000E+000 -0.41011282785E-013 -0.41011691678E-018  0.00000000000E+000  0.00000000000E+000 -0.40741767085E-021  0.33027463683E-021
                    0.83584331342E-001  0.00000000000E+000 -0.19500000000E+003  0.55005484049E-003  0.00000000000E+000  0.00000000000E+000  0.65548920263E-008  0.65549573563E-013  0.00000000000E+000  0.00000000000E+000 -0.24438075670E-020  0.20544301468E-020
                    0.93414398785E-001  0.00000000000E+000 -0.25000000000E+000  0.41116759606E-002 -0.21171121839E-010 -0.20169284890E-008  0.00000000000E+000  0.00000000000E+000  0.15860029596E-010 -0.15860029596E-010  0.00000000000E+000 -0.00000000000E+000
                    0.93414398785E-001  0.00000000000E+000 -0.75000000000E+000  0.56230082699E-001  0.23459402941E-011  0.23232720825E-009  0.17716363866E-009  0.28398836970E-014  0.18017344390E-009 -0.18017344390E-009  0.18211800786E-025 -0.18211795423E-025
                    0.93414398785E-001  0.00000000000E+000 -0.15000000000E+001  0.90566025671E+001  0.18495277279E-009  0.22486097449E-007 -0.20408531974E-007 -0.32817485063E-012  0.23109344424E-007 -0.23109344424E-007  0.15699510377E-021 -0.15699509959E-021
                    0.93414398785E-001  0.00000000000E+000 -0.27500000000E+001  0.13619075243E+002  0.25787249701E-009  0.32523930786E-007 -0.30805417177E-007 -0.49565526413E-012  0.33465318082E-007 -0.33465318082E-007  0.29371582991E-021 -0.29371583036E-021
                    0.93414398785E-001  0.00000000000E+000 -0.47500000000E+001  0.22712897779E+002  0.42182926908E-009  0.53457031386E-007 -0.55802614136E-007 -0.89810101303E-012  0.55017076089E-007 -0.55017076089E-007  0.82862506597E-021 -0.82862503942E-021
                    0.93414398785E-001  0.00000000000E+000 -0.85000000000E+001  0.45406274124E+002  0.83816538845E-009  0.10572023392E-006 -0.11998525893E-006 -0.19317374630E-011  0.10881243697E-006 -0.10881243697E-006  0.31836642910E-020 -0.31836641906E-020
                    0.93414398785E-001  0.00000000000E+000 -0.13500000000E+002  0.44595097407E+002  0.81029560632E-009  0.10124259927E-006 -0.12576917480E-006 -0.20257216315E-011  0.10464269159E-006 -0.10464269159E-006  0.83574976096E-020 -0.83574972473E-020
                    0.93414398785E-001  0.00000000000E+000 -0.18500000000E+002  0.44295964323E+002  0.75761165907E-009  0.92802028689E-007 -0.12184615563E-006 -0.19631262923E-011  0.96075407167E-007 -0.96075407167E-007  0.58333266323E-019 -0.58333268387E-019
                    0.93414398785E-001  0.00000000000E+000 -0.23500000000E+002  0.54708891295E+002  0.67036389477E-009  0.84815492496E-007 -0.10895291147E-006 -0.17571287956E-011  0.88676070938E-007 -0.88676070938E-007  0.81573170225E-018 -0.81573169031E-018
                    0.93414398785E-001  0.00000000000E+000 -0.28500000000E+002  0.51396794733E+002  0.60356184208E-010  0.69038222180E-008 -0.50533250389E-007 -0.81433672844E-012  0.85648786005E-008 -0.85648786005E-008  0.80609806549E-016 -0.80609810184E-016
                    0.93414398785E-001  0.00000000000E+000 -0.33500000000E+002  0.66726046762E+002  0.00000000000E+000  0.00000000000E+000 -0.39054690657E-006 -0.89574556940E-011  0.00000000000E+000 -0.00000000000E+000  0.39661338210E-015 -0.39661337767E-015
                    0.93414398785E-001  0.00000000000E+000 -0.38500000000E+002  0.66688796827E+002  0.00000000000E+000  0.00000000000E+000 -0.33776883203E-006 -0.10392497207E-010  0.00000000000E+000 -0.00000000000E+000  0.33879985916E-015 -0.33879987239E-015
                    0.93414398785E-001  0.00000000000E+000 -0.42250000000E+002  0.32904332731E+002  0.00000000000E+000  0.00000000000E+000 -0.14401575532E-006 -0.52751823690E-011  0.00000000000E+000 -0.00000000000E+000  0.11743388591E-015 -0.11743386964E-015
                    0.93414398785E-001  0.00000000000E+000 -0.44250000000E+002  0.19729289307E+002  0.00000000000E+000  0.00000000000E+000 -0.76948534265E-007 -0.30588848872E-011  0.00000000000E+000 -0.00000000000E+000  0.45884259655E-016 -0.45884260473E-016
                    0.93414398785E-001  0.00000000000E+000 -0.45500000000E+002  0.13143331174E+002  0.00000000000E+000  0.00000000000E+000 -0.47962395145E-007 -0.20003283902E-011  0.00000000000E+000 -0.00000000000E+000  0.21659646093E-016 -0.21659650491E-016
                    0.93414398785E-001  0.00000000000E+000 -0.46500000000E+002  0.13137099954E+002  0.00000000000E+000  0.00000000000E+000 -0.46090156044E-007 -0.19944241117E-011  0.00000000000E+000 -0.00000000000E+000  0.16243813672E-016 -0.16243821707E-016
                    0.93414398785E-001  0.00000000000E+000 -0.47500000000E+002  0.13128782572E+002  0.00000000000E+000  0.00000000000E+000 -0.44757848376E-007 -0.20069685142E-011  0.00000000000E+000 -0.00000000000E+000  0.11630136689E-016 -0.11630137659E-016
                    0.93414398785E-001  0.00000000000E+000 -0.48500000000E+002  0.13130386404E+002  0.00000000000E+000  0.00000000000E+000 -0.43683128788E-007 -0.20273225570E-011  0.00000000000E+000 -0.00000000000E+000  0.76176593430E-017 -0.76176634223E-017
                    0.93414398785E-001  0.00000000000E+000 -0.49500000000E+002  0.13131198792E+002  0.00000000000E+000  0.00000000000E+000 -0.42617898071E-007 -0.20447647763E-011  0.00000000000E+000 -0.00000000000E+000  0.33759172066E-017 -0.33759207599E-017
                    0.93414398785E-001  0.00000000000E+000 -0.50500000000E+002  0.13121652832E+002  0.00000000000E+000  0.00000000000E+000 -0.40279772259E-007 -0.19956002030E-011  0.00000000000E+000 -0.00000000000E+000 -0.43689312772E-017  0.43689287736E-017
                    0.93414398785E-001  0.00000000000E+000 -0.51500000000E+002  0.13082542851E+002  0.00000000000E+000  0.00000000000E+000 -0.19102973482E-007 -0.49582337493E-012  0.00000000000E+000  0.00000000000E+000  0.51023716643E-015 -0.51023716666E-015
                    0.93414398785E-001  0.00000000000E+000 -0.52500000000E+002  0.13082942763E+002  0.00000000000E+000  0.00000000000E+000 -0.19295283843E-007 -0.28592724588E-012  0.00000000000E+000  0.00000000000E+000  0.30435858317E-015 -0.30435858424E-015
                    0.93414398785E-001  0.00000000000E+000 -0.53500000000E+002  0.13071014263E+002  0.00000000000E+000  0.00000000000E+000 -0.19327913743E-007 -0.21386130296E-012  0.00000000000E+000  0.00000000000E+000  0.11701330714E-015 -0.11701331474E-015
                    0.93414398785E-001  0.00000000000E+000 -0.54500000000E+002  0.13082961865E+002  0.00000000000E+000  0.00000000000E+000 -0.19381234127E-007 -0.19730091553E-012  0.00000000000E+000  0.00000000000E+000  0.28755171135E-016 -0.28755179001E-016
                    0.93414398785E-001  0.00000000000E+000 -0.55500000000E+002  0.13075608623E+002  0.00000000000E+000  0.00000000000E+000 -0.19404092276E-007 -0.19451377212E-012  0.00000000000E+000  0.00000000000E+000  0.51913838102E-017 -0.51913825935E-017
                    0.93414398785E-001  0.00000000000E+000 -0.56500000000E+002  0.13076373561E+002  0.00000000000E+000  0.00000000000E+000 -0.19433977063E-007 -0.19439490058E-012  0.00000000000E+000  0.00000000000E+000  0.72870661240E-018 -0.72869840929E-018
                    0.93414398785E-001  0.00000000000E+000 -0.57750000000E+002  0.19607784098E+002  0.00000000000E+000  0.00000000000E+000 -0.29178058724E-007 -0.29178815169E-012  0.00000000000E+000  0.00000000000E+000  0.94564685825E-019 -0.94568234837E-019
                    0.93414398785E-001  0.00000000000E+000 -0.59750000000E+002  0.32704784097E+002  0.00000000000E+000  0.00000000000E+000 -0.48807101152E-007 -0.48807604565E-012  0.00000000000E+000  0.00000000000E+000  0.15104637937E-019 -0.15095705236E-019
                    0.93414398785E-001  0.00000000000E+000 -0.63500000000E+002  0.64724179886E+002  0.00000000000E+000  0.00000000000E+000 -0.98342315090E-007 -0.98343296170E-012  0.00000000000E+000  0.00000000000E+000  0.12436170953E-021 -0.83500492925E-022
                    0.93414398785E-001  0.00000000000E+000 -0.68500000000E+002  0.64677662274E+002  0.00000000000E+000  0.00000000000E+000 -0.98957101696E-007 -0.98958089592E-012  0.00000000000E+000  0.00000000000E+000 -0.55963693392E-021  0.54576802886E-021
                    0.93414398785E-001  0.00000000000E+000 -0.76000000000E+002  0.12873471377E+003  0.00000000000E+000  0.00000000000E+000 -0.19968987550E-006 -0.19969186748E-011  0.00000000000E+000  0.00000000000E+000  0.39790658431E-020 -0.39921918242E-020
                    0.93414398785E-001  0.00000000000E+000 -0.86000000000E+002  0.12861398543E+003  0.00000000000E+000  0.00000000000E+000 -0.20270606784E-006 -0.20270809036E-011  0.00000000000E+000  0.00000000000E+000  0.62175193413E-021 -0.62852198693E-021