 VARIABLES       =                 X                 Y                 Z              ROCK              PRES              TEMP             SAT_G             SAT_L         X_WATER_G           X_AIR_G         X_WATER_L           X_AIR_L             REL_G             REL_L           PCAP_GL             DEN_G             DEN_L               POR
 ZONE T=" 0.3153570E+08 SEC"  I =        9 J =        0 K =       30
                    0.37500000000E-001  0.00000000000E+000 -0.15000000000E+001                   2  0.10094993418E+006  0.59921891773E+001  0.50042023383E+000  0.49957976617E+000  0.57792650879E-002  0.99422073491E+000  0.99998392294E+000  0.16077059535E-004  0.18802570619E+000  0.60914817938E-001  0.00000000000E+000  0.12552206163E+001  0.10000049838E+004  0.99992895123E-003
                    0.37500000000E-001  0.00000000000E+000 -0.27500000000E+001                   2  0.10097854499E+006  0.79843898737E+001  0.50037695394E+000  0.49962304606E+000  0.66277795708E-002  0.99337222043E+000  0.99998394034E+000  0.16059664812E-004  0.18797152546E+000  0.60935425758E-001  0.00000000000E+000  0.12460407026E+001  0.99993042590E+003  0.99992278189E-003
                    0.37500000000E-001  0.00000000000E+000 -0.47500000000E+001                   2  0.10101681154E+006  0.10036383928E+002  0.50029823447E+000  0.49970176553E+000  0.76148266644E-002  0.99238517334E+000  0.99998395976E+000  0.16040237072E-004  0.18787300155E+000  0.60972920758E-001  0.00000000000E+000  0.12367441986E+001  0.99979098533E+003  0.99992558342E-003
                    0.37500000000E-001  0.00000000000E+000 -0.85000000000E+001                   2  0.10107005761E+006  0.11302426452E+002  0.50023977540E+000  0.49976022460E+000  0.82843946100E-002  0.99171560539E+000  0.99998396861E+000  0.16031394421E-004  0.18779985400E+000  0.61000775960E-001  0.00000000000E+000  0.12313917563E+001  0.99967492780E+003  0.99992278406E-003
                    0.37500000000E-001  0.00000000000E+000 -0.13500000000E+002                   2  0.10101258633E+006  0.10392894051E+002  0.50028308465E+000  0.49971691535E+000  0.77998365843E-002  0.99220016342E+000  0.99998396521E+000  0.16034787842E-004  0.18785404363E+000  0.60980138649E-001  0.00000000000E+000  0.12349998057E+001  0.99976055862E+003  0.99994950862E-003
                    0.37500000000E-001  0.00000000000E+000 -0.18500000000E+002                   2  0.10107309078E+006  0.10501856328E+002  0.50029047384E+000  0.49970952616E+000  0.78523454425E-002  0.99214765456E+000  0.99998395696E+000  0.16043035587E-004  0.18786329005E+000  0.60976618111E-001  0.00000000000E+000  0.12352257633E+001  0.99975093147E+003  0.99995765875E-003
                    0.37500000000E-001  0.00000000000E+000 -0.23500000000E+002                   2  0.10101160312E+006  0.95378785273E+001  0.50035491408E+000  0.49964508592E+000  0.73634712021E-002  0.99263652880E+000  0.99998395410E+000  0.16045903697E-004  0.18794393783E+000  0.60945921968E-001  0.00000000000E+000  0.12390489861E+001  0.99983049811E+003  0.10000073870E-002
                    0.37500000000E-001  0.00000000000E+000 -0.28500000000E+002                   2  0.10139384838E+006  0.12246244813E+002  0.50022273316E+000  0.49977726684E+000  0.87920879069E-002  0.99120791209E+000  0.99998393039E+000  0.16069605671E-004  0.18777853272E+000  0.61008898108E-001  0.00000000000E+000  0.12308749810E+001  0.99957424070E+003  0.99992502696E-003
                    0.37500000000E-001  0.00000000000E+000 -0.33500000000E+002                   2  0.13644807778E+006  0.11487837938E+002  0.50067259903E+000  0.49932740097E+000  0.62045148665E-002  0.99379548513E+000  0.99997828447E+000  0.21715530191E-004  0.18834180908E+000  0.60794751009E-001  0.00000000000E+000  0.16634258700E+001  0.99967268489E+003  0.10003380500E-002
                    0.37500000000E-001  0.00000000000E+000 -0.38500000000E+002                   2  0.17234106638E+006  0.11557523287E+002  0.50108606654E+000  0.49891393346E+000  0.49312415142E-002  0.99506875849E+000  0.99997251593E+000  0.27484070782E-004  0.18886034772E+000  0.60598395905E-001  0.00000000000E+000  0.21020964367E+001  0.99968232198E+003  0.10006554038E-002
                    0.37500000000E-001  0.00000000000E+000 -0.42250000000E+002                   2  0.19463050670E+006  0.11650074093E+002  0.50133598059E+000  0.49866401941E+000  0.43918984544E-002  0.99560810155E+000  0.99996893441E+000  0.31065586730E-004  0.18917415896E+000  0.60479928020E-001  0.00000000000E+000  0.23739700776E+001  0.99968309123E+003  0.10008366428E-002
                    0.37500000000E-001  0.00000000000E+000 -0.44250000000E+002                   2  0.20500213756E+006  0.11689780813E+002  0.50146275627E+000  0.49853724373E+000  0.41801292718E-002  0.99581987073E+000  0.99996726783E+000  0.32732166247E-004  0.18933346014E+000  0.60419894116E-001  0.00000000000E+000  0.25004477910E+001  0.99968376238E+003  0.10009604567E-002
                    0.37500000000E-001  0.00000000000E+000 -0.45500000000E+002                   2  0.21189645767E+006  0.11711688460E+002  0.50153594699E+000  0.49846405301E+000  0.40496664115E-002  0.99595033359E+000  0.99996615995E+000  0.33840053019E-004  0.18942546294E+000  0.60385254099E-001  0.00000000000E+000  0.25845442054E+001  0.99968467251E+003  0.10010219667E-002
                    0.37500000000E-001  0.00000000000E+000 -0.46500000000E+002                   2  0.21768209796E+006  0.11726942362E+002  0.50161059358E+000  0.49838940642E+000  0.39457622544E-002  0.99605423775E+000  0.99996523018E+000  0.34769824582E-004  0.18951932168E+000  0.60349939386E-001  0.00000000000E+000  0.26551375257E+001  0.99968576415E+003  0.10010828779E-002
                    0.37500000000E-001  0.00000000000E+000 -0.47500000000E+002                   2  0.22392531319E+006  0.11741540575E+002  0.50167813573E+000  0.49832186427E+000  0.38392071545E-002  0.99616079285E+000  0.99996422684E+000  0.35773156243E-004  0.18960426997E+000  0.60317998218E-001  0.00000000000E+000  0.27313240806E+001  0.99968713680E+003  0.10011524841E-002
                    0.37500000000E-001  0.00000000000E+000 -0.48500000000E+002                   2  0.23016335788E+006  0.11755695404E+002  0.50175833719E+000  0.49824166281E+000  0.37384226461E-002  0.99626157735E+000  0.99996322434E+000  0.36775662335E-004  0.18970516776E+000  0.60280085762E-001  0.00000000000E+000  0.28074441671E+001  0.99968855111E+003  0.10012297952E-002
                    0.37500000000E-001  0.00000000000E+000 -0.49500000000E+002                   2  0.23637613905E+006  0.11770868687E+002  0.50182960601E+000  0.49817039399E+000  0.36436071688E-002  0.99635639283E+000  0.99996222591E+000  0.37774091677E-004  0.18979485310E+000  0.60246409930E-001  0.00000000000E+000  0.28832371133E+001  0.99968984141E+003  0.10012372064E-002
                    0.37500000000E-001  0.00000000000E+000 -0.50500000000E+002                   2  0.24172958349E+006  0.11791534524E+002  0.50188954489E+000  0.49811045511E+000  0.35676191608E-002  0.99643238084E+000  0.99996136569E+000  0.38634308587E-004  0.18987029916E+000  0.60218097920E-001  0.00000000000E+000  0.29484583380E+001  0.99969013557E+003  0.10012993116E-002
                    0.37500000000E-001  0.00000000000E+000 -0.51500000000E+002                   2  0.17090088735E+006  0.11833663115E+002  0.11919369524E-002  0.99880806305E+000  0.50648417035E-002  0.99493515830E+000  0.99997275146E+000  0.27248543311E-004  0.00000000000E+000  0.98746554442E+000  0.00000000000E+000  0.20823423000E+001  0.99965239138E+003  0.10003343595E-002
                    0.37500000000E-001  0.00000000000E+000 -0.52500000000E+002                   2  0.10843920716E+006  0.11847760259E+002  0.47797999393E-003  0.99952202001E+000  0.80038513288E-002  0.99199614867E+000  0.99998279196E+000  0.17208039090E-004  0.00000000000E+000  0.99400738263E+000  0.00000000000E+000  0.13188696569E+001  0.99962158328E+003  0.99989450387E-003
                    0.37500000000E-001  0.00000000000E+000 -0.53500000000E+002                   2  0.80486994319E+005  0.11859749454E+002  0.63259359576E-004  0.99993674064E+000  0.10810312537E-001  0.98918968746E+000  0.99998728529E+000  0.12714706840E-004  0.00000000000E+000  0.99882743240E+000  0.00000000000E+000  0.97721076607E+000  0.99960718252E+003  0.99953736949E-003
                    0.37500000000E-001  0.00000000000E+000 -0.54500000000E+002                   2  0.84274572640E+005  0.11870732775E+002  0.00000000000E+000  0.10000000000E+001  0.00000000000E+000  0.00000000000E+000  0.99998910142E+000  0.10898581212E-004  0.00000000000E+000  0.10000000000E+001  0.00000000000E+000  0.10234539156E+001  0.99960777185E+003  0.99945507077E-003
                    0.37500000000E-001  0.00000000000E+000 -0.55500000000E+002                   2  0.96169212418E+005  0.11881642452E+002  0.00000000000E+000  0.10000000000E+001  0.00000000000E+000  0.00000000000E+000  0.99998975395E+000  0.10246045482E-004  0.00000000000E+000  0.10000000000E+001  0.00000000000E+000  0.11687609574E+001  0.99961216834E+003  0.99946821869E-003
                    0.37500000000E-001  0.00000000000E+000 -0.56500000000E+002                   2  0.10463260653E+006  0.11891661806E+002  0.00000000000E+000  0.10000000000E+001  0.00000000000E+000  0.00000000000E+000  0.99998994093E+000  0.10059065291E-004  0.00000000000E+000  0.10000000000E+001  0.00000000000E+000  0.12721334885E+001  0.99961505050E+003  0.99945937711E-003
                    0.37500000000E-001  0.00000000000E+000 -0.57750000000E+002                   2  0.11703642700E+006  0.11903739747E+002  0.00000000000E+000  0.10000000000E+001  0.00000000000E+000  0.00000000000E+000  0.99998999058E+000  0.10009416196E-004  0.00000000000E+000  0.10000000000E+001  0.00000000000E+000  0.14236356688E+001  0.99961955450E+003  0.99946102292E-003
                    0.37500000000E-001  0.00000000000E+000 -0.59750000000E+002                   2  0.13435921614E+006  0.11923727049E+002  0.00000000000E+000  0.10000000000E+001  0.00000000000E+000  0.00000000000E+000  0.99998999914E+000  0.10000864230E-004  0.00000000000E+000  0.10000000000E+001  0.00000000000E+000  0.16351781866E+001  0.99962550031E+003  0.99943996419E-003
                    0.37500000000E-001  0.00000000000E+000 -0.63500000000E+002                   2  0.17126070915E+006  0.11981885222E+002  0.00000000000E+000  0.10000000000E+001  0.00000000000E+000  0.00000000000E+000  0.99998999996E+000  0.10000038062E-004  0.00000000000E+000  0.10000000000E+001  0.00000000000E+000  0.20855925023E+001  0.99963643356E+003  0.99945876675E-003
                    0.37500000000E-001  0.00000000000E+000 -0.68500000000E+002                   2  0.21893866573E+006  0.12035945109E+002  0.00000000000E+000  0.10000000000E+001  0.00000000000E+000  0.00000000000E+000  0.99999000000E+000  0.10000001115E-004  0.00000000000E+000  0.10000000000E+001  0.00000000000E+000  0.26674768393E+001  0.99965281248E+003  0.99944203749E-003
                    0.37500000000E-001  0.00000000000E+000 -0.76000000000E+002                   2  0.29195672767E+006  0.12104980234E+002  0.00000000000E+000  0.10000000000E+001  0.00000000000E+000  0.00000000000E+000  0.99999000000E+000  0.99999996912E-005  0.00000000000E+000  0.10000000000E+001  0.00000000000E+000  0.35583736489E+001  0.99967933371E+003  0.99942148627E-003
                    0.37500000000E-001  0.00000000000E+000 -0.86000000000E+002                   2  0.38442551668E+006  0.12174981737E+002  0.00000000000E+000  0.10000000000E+001  0.00000000000E+000  0.00000000000E+000  0.99999000000E+000  0.99999996377E-005  0.00000000000E+000  0.10000000000E+001  0.00000000000E+000  0.46862645358E+001  0.99971475913E+003  0.99935529348E-003
                    0.37500000000E-001  0.00000000000E+000 -0.93500000000E+002                   2  0.45409327991E+006  0.12035915405E+002  0.00000000000E+000  0.10000000000E+001  0.00000000000E+000  0.00000000000E+000  0.99999000000E+000  0.99999997243E-005  0.00000000000E+000  0.10000000000E+001  0.00000000000E+000  0.55394789955E+001  0.99976294092E+003  0.99932131505E-003
                    0.37500000000E-001  0.00000000000E+000 -0.97500000000E+002                   2  0.49496133307E+006  0.12337848851E+002  0.00000000000E+000  0.10000000000E+001  0.00000000000E+000  0.00000000000E+000  0.99999000000E+000  0.99999997592E-005  0.00000000000E+000  0.10000000000E+001  0.00000000000E+000  0.60320945055E+001  0.99974789321E+003  0.99934697812E-003
                    0.37500000000E-001  0.00000000000E+000 -0.10000000000E+003                   2  0.52524437797E+006  0.12883893763E+002  0.00000000000E+000  0.10000000000E+001  0.00000000000E+000  0.00000000000E+000  0.99999000000E+000  0.99999997659E-005  0.00000000000E+000  0.10000000000E+001  0.00000000000E+000  0.63890970194E+001  0.99969714346E+003  0.99940167138E-003
                    0.37500000000E-001  0.00000000000E+000 -0.50000000000E-005                   5  0.10132500000E+006  0.50100000000E+001  0.10000000000E+001  0.00000000000E+000  0.52500000000E-002  0.99475000000E+000  0.00000000000E+000  0.00000000000E+000  0.10000000000E+001  0.00000000000E+000  0.00000000000E+000  0.12647370810E+001  0.10000186787E+004  0.99000001000E+000
                    0.38420000000E+000  0.00000000000E+000 -0.25000000000E+000                   1  0.10132784618E+006  0.56295917840E+001  0.91191783592E+000  0.88082164078E-001  0.56142710857E-002  0.99438572891E+000  0.99998385847E+000  0.16141530884E-004  0.10000000000E+001  0.00000000000E+000 -0.27285045913E+005  0.12616840460E+001  0.10000119892E+004  0.30000001002E+000
                    0.28110000000E+001  0.00000000000E+000 -0.25000000000E+000                   1  0.10132786216E+006  0.57494263597E+001  0.91190610021E+000  0.88093899786E-001  0.56612959850E-002  0.99433870401E+000  0.99998385969E+000  0.16140311764E-004  0.10000000000E+001  0.00000000000E+000 -0.27276771180E+005  0.12611063263E+001  0.10000099699E+004  0.30000001002E+000
                    0.38420000000E+000  0.00000000000E+000 -0.15000000000E+001                   1  0.10134318596E+006  0.77096070115E+001  0.89970518103E+000  0.10029481897E+000  0.64807890791E-002  0.99351921092E+000  0.99998387853E+000  0.16121471989E-004  0.99926295267E+000  0.22496893708E-010 -0.20486320422E+005  0.12518747717E+001  0.99994453501E+003  0.30000004002E+000
                    0.28110000000E+001  0.00000000000E+000 -0.15000000000E+001                   1  0.10134320280E+006  0.89938500302E+001  0.89976341831E+000  0.10023658169E+000  0.70738563987E-002  0.99292614360E+000  0.99998389391E+000  0.16106088287E-004  0.99940854582E+000  0.11625154987E-010 -0.20511841388E+005  0.12457310409E+001  0.99986969439E+003  0.30000004002E+000
                    0.38420000000E+000  0.00000000000E+000 -0.23500000000E+002                   1  0.10160669272E+006  0.12351002706E+002  0.89899166221E+000  0.10100833779E+000  0.88345930953E-002  0.99116540690E+000  0.99998389776E+000  0.16102236158E-004  0.99747915953E+000  0.90009506591E-009 -0.20177877609E+005  0.12329746910E+001  0.99956241119E+003  0.30000085004E+000
                    0.28110000000E+001  0.00000000000E+000 -0.23500000000E+002                   1  0.10160670076E+006  0.15043842090E+002  0.89919929026E+000  0.10080070974E+000  0.10537969187E-001  0.98946203081E+000  0.99998394190E+000  0.16058100209E-004  0.99799822765E+000  0.45070370804E-009 -0.20266830999E+005  0.12202029494E+001  0.99920697743E+003  0.30000085004E+000
                    0.38420000000E+000  0.00000000000E+000 -0.50500000000E+002                   1  0.31662820451E+006  0.13580101197E+002  0.31985183840E-001  0.96801481616E+000  0.30618957639E-002  0.99693810424E+000  0.99994935409E+000  0.50645908566E-004  0.00000000000E+000  0.82668562287E+000 -0.92701014209E+002  0.38391077081E+001  0.99951173427E+003  0.30064693027E+000
                    0.28110000000E+001  0.00000000000E+000 -0.50500000000E+002                   1  0.31663033057E+006  0.15360514765E+002  0.33121869083E-001  0.96687813092E+000  0.34364702506E-002  0.99656352975E+000  0.99994938423E+000  0.50615769551E-004  0.00000000000E+000  0.82195928367E+000 -0.94785459814E+002  0.38145790346E+001  0.99925850594E+003  0.30064693026E+000
                    0.38420000000E+000  0.00000000000E+000 -0.10000000000E+003                   1  0.80130528056E+006  0.14731635068E+002  0.00000000000E+000  0.10000000000E+001  0.00000000000E+000  0.00000000000E+000  0.99999000000E+000  0.99999997428E-005  0.00000000000E+000  0.10000000000E+001  0.00000000000E+000  0.96872536841E+001  0.99957675754E+003  0.30065998028E+000
                    0.28110000000E+001  0.00000000000E+000 -0.10000000000E+003                   1  0.80130502004E+006  0.16432763985E+002  0.00000000000E+000  0.10000000000E+001  0.00000000000E+000  0.00000000000E+000  0.99999000000E+000  0.99999997474E-005  0.00000000000E+000  0.10000000000E+001  0.00000000000E+000  0.96294689472E+001  0.99931003863E+003  0.30066001028E+000
                    0.37500000000E-001  0.00000000000E+000 -0.10200000000E+003                   1  0.82089061088E+006  0.16715578388E+002  0.00000000000E+000  0.10000000000E+001  0.00000000000E+000  0.00000000000E+000  0.99999000000E+000  0.99999997210E-005  0.00000000000E+000  0.10000000000E+001  0.00000000000E+000  0.98552621466E+001  0.99927132795E+003  0.30065998028E+000
                    0.37500000000E-001  0.00000000000E+000 -0.10500000000E+003                   1  0.85026574640E+006  0.17361222501E+002  0.00000000000E+000  0.10000000000E+001  0.00000000000E+000  0.00000000000E+000  0.99999000000E+000  0.99999998061E-005  0.00000000000E+000  0.10000000000E+001  0.00000000000E+000  0.10185189962E+002  0.99917235276E+003  0.30065987027E+000
                    0.37500000000E-001  0.00000000000E+000 -0.11100000000E+003                   1  0.90901269593E+006  0.17812687875E+002  0.00000000000E+000  0.10000000000E+001  0.00000000000E+000  0.00000000000E+000  0.99999000000E+000  0.99999997496E-005  0.00000000000E+000  0.10000000000E+001  0.00000000000E+000  0.10872374184E+002  0.99911770886E+003  0.30065972025E+000
                    0.37500000000E-001  0.00000000000E+000 -0.12300000000E+003                   1  0.10265030630E+007  0.18147506955E+002  0.00000000000E+000  0.10000000000E+001  0.00000000000E+000  0.00000000000E+000  0.99999000000E+000  0.99999996094E-005  0.00000000000E+000  0.10000000000E+001  0.00000000000E+000  0.12264515192E+002  0.99910937033E+003  0.30065936021E+000
                    0.37500000000E-001  0.00000000000E+000 -0.14700000000E+003                   1  0.12614844732E+007  0.18641746391E+002  0.00000000000E+000  0.10000000000E+001  0.00000000000E+000  0.00000000000E+000  0.99999000000E+000  0.99999996906E-005  0.00000000000E+000  0.10000000000E+001  0.00000000000E+000  0.15048362293E+002  0.99912253746E+003  0.30065873014E+000
                    0.37500000000E-001  0.00000000000E+000 -0.19500000000E+003                   3  0.17314549367E+007  0.19625000000E+002  0.00000000000E+000  0.10000000000E+001  0.00000000000E+000  0.00000000000E+000  0.99999000000E+000  0.99999997496E-005  0.00000000000E+000  0.10000000000E+001  0.00000000000E+000  0.20588297542E+002  0.99914059447E+003  0.30065748000E+000
                    0.37500000000E-001  0.00000000000E+000 -0.25000000000E+000                   4  0.10134507285E+006  0.56209309605E+001  0.89392208078E+000  0.10607791922E+000  0.56099288727E-002  0.99439007113E+000  0.99998385561E+000  0.16144387916E-004  0.98480607566E+000  0.19719027143E-006 -0.18191996488E+005  0.12619410582E+001  0.10000121344E+004  0.30000275000E+000
                    0.37500000000E-001  0.00000000000E+000 -0.75000000000E+000                   4  0.10133831541E+006  0.66141999037E+001  0.90952285290E+000  0.90477147097E-001  0.60105256621E-002  0.99398947434E+000  0.99998386709E+000  0.16132905607E-004  0.10000000000E+001  0.00000000000E+000 -0.25678970318E+005  0.12570727652E+001  0.99998855461E+003  0.30000004000E+000
                    0.79290000000E-001  0.00000000000E+000 -0.25000000000E+000                   1  0.10132784515E+006  0.56175687407E+001  0.93013598240E+000  0.69864017604E-001  0.56095722240E-002  0.99439042778E+000  0.99998385835E+000  0.16141652797E-004  0.10000000000E+001  0.00000000000E+000 -0.48001715568E+005  0.12617420290E+001  0.10000121789E+004  0.30000001002E+000
                    0.79290000000E-001  0.00000000000E+000 -0.75000000000E+000                   1  0.10133399975E+006  0.66179608327E+001  0.89980026563E+000  0.10019973437E+000  0.60123449756E-002  0.99398765502E+000  0.99998386783E+000  0.16132171319E-004  0.99950066412E+000  0.69954101611E-011 -0.20528016094E+005  0.12570009519E+001  0.99998843339E+003  0.30000004002E+000
                    0.79290000000E-001  0.00000000000E+000 -0.15000000000E+001                   1  0.10134317961E+006  0.60399219390E+001  0.90369903582E+000  0.96300964182E-001  0.57758710397E-002  0.99422412896E+000  0.99998386023E+000  0.16139774952E-004  0.10000000000E+001  0.00000000000E+000 -0.22367598293E+005  0.12598974270E+001  0.10000041175E+004  0.30000007002E+000
                    0.79290000000E-001  0.00000000000E+000 -0.27500000000E+001                   1  0.10135837287E+006  0.80319110223E+001  0.89987749020E+000  0.10012250980E+000  0.66243289560E-002  0.99337567104E+000  0.99998387984E+000  0.16120162261E-004  0.99969372550E+000  0.16142330462E-011 -0.20561983923E+005  0.12505188960E+001  0.99992808160E+003  0.30000010002E+000
                    0.79290000000E-001  0.00000000000E+000 -0.47500000000E+001                   1  0.10138247283E+006  0.10083838296E+002  0.89963436748E+000  0.10036563252E+000  0.76115036826E-002  0.99238849632E+000  0.99998390161E+000  0.16098385784E-004  0.99908591888E+000  0.42913299911E-010 -0.20455359318E+005  0.12410155268E+001  0.99978721205E+003  0.30000019003E+000
                    0.79290000000E-001  0.00000000000E+000 -0.85000000000E+001                   1  0.10142737139E+006  0.11349851073E+002  0.89965108912E+000  0.10034891088E+000  0.82811982483E-002  0.99171880175E+000  0.99998391185E+000  0.16088153236E-004  0.99912772296E+000  0.37290715344E-010 -0.20462663332E+005  0.12355415240E+001  0.99967031661E+003  0.30000031003E+000
                    0.79290000000E-001  0.00000000000E+000 -0.13500000000E+002                   1  0.10148711059E+006  0.10453994661E+002  0.89424269412E+000  0.10575730588E+000  0.77950925289E-002  0.99220490747E+000  0.99998388976E+000  0.16110237180E-004  0.98560747807E+000  0.16759752304E-006 -0.18307803502E+005  0.12405376952E+001  0.99975538864E+003  0.30000049003E+000
                    0.79290000000E-001  0.00000000000E+000 -0.18500000000E+002                   1  0.10154687790E+006  0.10562928289E+002  0.89400213721E+000  0.10599786279E+000  0.78476057443E-002  0.99215239426E+000  0.99998388164E+000  0.16118361509E-004  0.98500618272E+000  0.18949926252E-006 -0.18220798926E+005  0.12407524115E+001  0.99974567039E+003  0.30000067004E+000
                    0.79290000000E-001  0.00000000000E+000 -0.23500000000E+002                   1  0.10160668192E+006  0.96123244363E+001  0.89109567492E+000  0.10890432508E+000  0.73570555529E-002  0.99264294445E+000  0.99998385940E+000  0.16140599940E-004  0.97774192975E+000  0.62019289993E-006 -0.17221625795E+005  0.12460251855E+001  0.99982510497E+003  0.30000085004E+000
                    0.79290000000E-001  0.00000000000E+000 -0.28500000000E+002                   1  0.10166666325E+006  0.12282044613E+002  0.31561573493E+000  0.68438426507E+000  0.87891681536E-002  0.99121083185E+000  0.99998388708E+000  0.16112919153E-004  0.33879583264E-001  0.20400241638E+000 -0.54511901057E+003  0.12340342294E+001  0.99957030815E+003  0.30000103004E+000
                    0.79290000000E-001  0.00000000000E+000 -0.33500000000E+002                   1  0.15025070545E+006  0.11532783077E+002  0.87745214662E-001  0.91225478534E+000  0.56494439885E-002  0.99435055601E+000  0.99997606644E+000  0.23933560384E-004  0.00000000000E+000  0.63287656481E+000 -0.18131919210E+003  0.18320174892E+001  0.99967452048E+003  0.30014724023E+000
                    0.79290000000E-001  0.00000000000E+000 -0.38500000000E+002                   1  0.19918693101E+006  0.11602093602E+002  0.72194121672E-001  0.92780587833E+000  0.42775361491E-002  0.99572246385E+000  0.99996820131E+000  0.31798693593E-004  0.00000000000E+000  0.68069527985E+000 -0.15829662649E+003  0.24301236240E+001  0.99969027031E+003  0.30029413025E+000
                    0.79290000000E-001  0.00000000000E+000 -0.42250000000E+002                   1  0.23588056713E+006  0.11693442734E+002  0.55019269058E-001  0.94498073094E+000  0.36325974907E-002  0.99636740251E+000  0.99996230444E+000  0.37695564873E-004  0.00000000000E+000  0.73844892383E+000 -0.13179287770E+003  0.28779934889E+001  0.99969786063E+003  0.30040434027E+000
                    0.79290000000E-001  0.00000000000E+000 -0.44250000000E+002                   1  0.25544820281E+006  0.11732896560E+002  0.44746053924E-001  0.95525394608E+000  0.33625480565E-002  0.99663745194E+000  0.99995915969E+000  0.40840314496E-004  0.00000000000E+000  0.77601253254E+000 -0.11504751722E+003  0.31168169893E+001  0.99970284382E+003  0.30046311027E+000
                    0.79290000000E-001  0.00000000000E+000 -0.45500000000E+002                   1  0.26767965850E+006  0.11754694597E+002  0.39520954579E-001  0.96047904542E+000  0.32132350527E-002  0.99678676495E+000  0.99995719391E+000  0.42806091019E-004  0.00000000000E+000  0.79616141671E+000 -0.10615108132E+003  0.32661026431E+001  0.99970625259E+003  0.30049986028E+000
                    0.79290000000E-001  0.00000000000E+000 -0.46500000000E+002                   1  0.27746816919E+006  0.11769925087E+002  0.37329554192E-001  0.96267044581E+000  0.31027931690E-002  0.99689720683E+000  0.99995562072E+000  0.44379280060E-004  0.00000000000E+000  0.80484850446E+000 -0.10232367098E+003  0.33855827802E+001  0.99970921230E+003  0.30052927028E+000
                    0.79290000000E-001  0.00000000000E+000 -0.47500000000E+002                   1  0.28725729575E+006  0.11784444989E+002  0.35500717195E-001  0.96449928281E+000  0.29997464938E-002  0.99700025351E+000  0.99995404742E+000  0.45952576451E-004  0.00000000000E+000  0.81221351640E+000 -0.99079742142E+002  0.35050667071E+001  0.99971224478E+003  0.30055869028E+000
                    0.79290000000E-001  0.00000000000E+000 -0.48500000000E+002                   1  0.29704692658E+006  0.11798590236E+002  0.33958689064E-001  0.96604131094E+000  0.29034286264E-002  0.99709657137E+000  0.99995247404E+000  0.47525957347E-004  0.00000000000E+000  0.81850893319E+000 -0.96306243529E+002  0.36245495390E+001  0.99971531427E+003  0.30058810029E+000
                    0.79290000000E-001  0.00000000000E+000 -0.49500000000E+002                   1  0.30683673081E+006  0.11813748128E+002  0.32515464875E-001  0.96748453512E+000  0.28134560893E-002  0.99718654391E+000  0.99995090065E+000  0.49099349197E-004  0.00000000000E+000  0.82447495795E+000 -0.93676185976E+002  0.37440088923E+001  0.99971827130E+003  0.30061752029E+000
                    0.79290000000E-001  0.00000000000E+000 -0.50500000000E+002                   1  0.31662002348E+006  0.11834281270E+002  0.27643951315E-001  0.97235604868E+000  0.27300855929E-002  0.99726991441E+000  0.99994932839E+000  0.50671613260E-004  0.00000000000E+000  0.84518427242E+000 -0.84518780679E+002  0.38633008110E+001  0.99972064049E+003  0.30064693029E+000
                    0.79290000000E-001  0.00000000000E+000 -0.51500000000E+002                   1  0.32632794185E+006  0.11875636207E+002  0.00000000000E+000  0.10000000000E+001  0.00000000000E+000  0.00000000000E+000  0.99995998666E+000  0.40013343128E-004  0.00000000000E+000  0.10000000000E+001  0.00000000000E+000  0.39813547156E+001  0.99972070736E+003  0.30066136027E+000
                    0.79290000000E-001  0.00000000000E+000 -0.52500000000E+002                   1  0.33612066896E+006  0.11889747163E+002  0.00000000000E+000  0.10000000000E+001  0.00000000000E+000  0.00000000000E+000  0.99997182168E+000  0.28178323478E-004  0.00000000000E+000  0.10000000000E+001  0.00000000000E+000  0.41008139973E+001  0.99972376130E+003  0.30066133027E+000
                    0.79290000000E-001  0.00000000000E+000 -0.53500000000E+002                   1  0.34591336442E+006  0.11901734170E+002  0.00000000000E+000  0.10000000000E+001  0.00000000000E+000  0.00000000000E+000  0.99998093672E+000  0.19063276664E-004  0.00000000000E+000  0.10000000000E+001  0.00000000000E+000  0.42202934050E+001  0.99972704361E+003  0.30066130028E+000
                    0.79290000000E-001  0.00000000000E+000 -0.54500000000E+002                   1  0.35570607534E+006  0.11912714265E+002  0.00000000000E+000  0.10000000000E+001  0.00000000000E+000  0.00000000000E+000  0.99998622332E+000  0.13776675809E-004  0.00000000000E+000  0.10000000000E+001  0.00000000000E+000  0.43397787055E+001  0.99973043343E+003  0.30066127028E+000
                    0.79290000000E-001  0.00000000000E+000 -0.55500000000E+002                   1  0.36549881246E+006  0.11923607407E+002  0.00000000000E+000  0.10000000000E+001  0.00000000000E+000  0.00000000000E+000  0.99998866111E+000  0.11338888964E-004  0.00000000000E+000  0.10000000000E+001  0.00000000000E+000  0.44592565158E+001  0.99973383063E+003  0.30066124028E+000
                    0.79290000000E-001  0.00000000000E+000 -0.56500000000E+002                   1  0.37529157882E+006  0.11933630272E+002  0.00000000000E+000  0.10000000000E+001  0.00000000000E+000  0.00000000000E+000  0.99998958960E+000  0.10410398296E-004  0.00000000000E+000  0.10000000000E+001  0.00000000000E+000  0.45787398963E+001  0.99973732109E+003  0.30066124028E+000