        VARIABLES=                 X                 Y                 Z              HEAT      FLOW_WATER_G        FLOW_AIR_G      FLOW_WATER_L        FLOW_AIR_L     FDIFF_WATER_G       FDIFF_AIR_G     FDIFF_WATER_L       FDIFF_AIR_L
 ZONE T=" 0.6000000E+02 SEC"  I =     2419 
                    0.74998205398E-001  0.00000000000E+000 -0.25000000000E+000 -0.23646297528E-005 -0.82422879808E-013 -0.77343222429E-011 -0.36452986970E-012 -0.58378818895E-017  0.67843821577E-011 -0.67843821577E-011  0.73942354395E-024 -0.73942347182E-024
                    0.74998205398E-001  0.00000000000E+000 -0.75000000000E+000 -0.14960129744E-003 -0.74445307156E-014 -0.69754707713E-012  0.38990752512E-011  0.62443077299E-016 -0.45851101656E-011  0.45851101656E-011  0.15102901943E-025 -0.15102940300E-025
                    0.37597140865E-001  0.00000000000E+000 -0.15000000000E+001 -0.58575917365E+003  0.00000000000E+000  0.00000000000E+000  0.00000000000E+000  0.00000000000E+000 -0.78909338448E-009  0.78909338448E-009  0.16969272043E-019 -0.16969272044E-019
                    0.37597140865E-001  0.00000000000E+000 -0.27500000000E+001 -0.96330058709E+003  0.00000000000E+000  0.00000000000E+000  0.00000000000E+000  0.00000000000E+000 -0.13654122373E-008  0.13654122373E-008  0.47793628481E-019 -0.47793628475E-019
                    0.37597140865E-001  0.00000000000E+000 -0.47500000000E+001 -0.17445858315E+004  0.00000000000E+000  0.00000000000E+000  0.00000000000E+000  0.00000000000E+000 -0.25926280678E-008  0.25926280678E-008  0.15539201132E-018 -0.15539201133E-018
                    0.37597140865E-001  0.00000000000E+000 -0.85000000000E+001 -0.37560448922E+004  0.00000000000E+000  0.00000000000E+000  0.00000000000E+000  0.00000000000E+000 -0.58163172276E-008  0.58163172276E-008  0.84997358859E-018 -0.84997358861E-018
                    0.37597140865E-001  0.00000000000E+000 -0.13500000000E+002 -0.40422284966E+004  0.00000000000E+000  0.00000000000E+000  0.00000000000E+000  0.00000000000E+000 -0.64402404508E-008  0.64402404508E-008  0.41946111662E-017 -0.41946111666E-017
                    0.37597140865E-001  0.00000000000E+000 -0.18500000000E+002 -0.44347675700E+004  0.00000000000E+000  0.00000000000E+000  0.00000000000E+000  0.00000000000E+000 -0.70376442061E-008  0.70376442061E-008  0.33041617073E-016 -0.33041617074E-016
                    0.37597140865E-001  0.00000000000E+000 -0.23500000000E+002 -0.50456562653E+004  0.00000000000E+000  0.00000000000E+000  0.00000000000E+000  0.00000000000E+000 -0.75495025829E-008  0.75495025829E-008  0.94877473502E-016 -0.94877473507E-016
                    0.37597140865E-001  0.00000000000E+000 -0.28500000000E+002 -0.71023765361E+004  0.00000000000E+000  0.00000000000E+000  0.00000000000E+000  0.00000000000E+000 -0.75018564935E-008  0.75018564935E-008  0.10635680425E-015 -0.10635680424E-015
                    0.37597140865E-001  0.00000000000E+000 -0.33500000000E+002 -0.86140480566E+004  0.00000000000E+000  0.00000000000E+000  0.00000000000E+000  0.00000000000E+000 -0.00000000000E+000  0.00000000000E+000 -0.63871859605E-016  0.63871859597E-016
                    0.37597140865E-001  0.00000000000E+000 -0.38500000000E+002 -0.90741455847E+004  0.00000000000E+000  0.00000000000E+000  0.00000000000E+000  0.00000000000E+000 -0.00000000000E+000  0.00000000000E+000 -0.26081605453E-015  0.26081605453E-015
                    0.37597140865E-001  0.00000000000E+000 -0.42250000000E+002 -0.47793939418E+004  0.00000000000E+000  0.00000000000E+000  0.00000000000E+000  0.00000000000E+000 -0.00000000000E+000  0.00000000000E+000 -0.28518314711E-015  0.28518314711E-015
                    0.37597140865E-001  0.00000000000E+000 -0.44250000000E+002 -0.30135560392E+004  0.00000000000E+000  0.00000000000E+000  0.00000000000E+000  0.00000000000E+000 -0.00000000000E+000  0.00000000000E+000 -0.23613594801E-015  0.23613594801E-015
                    0.37597140865E-001  0.00000000000E+000 -0.45500000000E+002 -0.21043321931E+004  0.00000000000E+000  0.00000000000E+000  0.00000000000E+000  0.00000000000E+000 -0.00000000000E+000  0.00000000000E+000 -0.18164231736E-015  0.18164231736E-015
                    0.37597140865E-001  0.00000000000E+000 -0.46500000000E+002 -0.21987849820E+004  0.00000000000E+000  0.00000000000E+000  0.00000000000E+000  0.00000000000E+000 -0.00000000000E+000  0.00000000000E+000 -0.19937469195E-015  0.19937469195E-015
                    0.37597140865E-001  0.00000000000E+000 -0.47500000000E+002 -0.22927081999E+004  0.00000000000E+000  0.00000000000E+000  0.00000000000E+000  0.00000000000E+000 -0.00000000000E+000  0.00000000000E+000 -0.21564352621E-015  0.21564352621E-015
                    0.37597140865E-001  0.00000000000E+000 -0.48500000000E+002 -0.23865098729E+004  0.00000000000E+000  0.00000000000E+000  0.00000000000E+000  0.00000000000E+000 -0.00000000000E+000  0.00000000000E+000 -0.23148184915E-015  0.23148184914E-015
                    0.37597140865E-001  0.00000000000E+000 -0.49500000000E+002 -0.24804536189E+004  0.00000000000E+000  0.00000000000E+000  0.00000000000E+000  0.00000000000E+000 -0.00000000000E+000  0.00000000000E+000 -0.25165604612E-015  0.25165604612E-015
                    0.37597140865E-001  0.00000000000E+000 -0.50500000000E+002 -0.25777564844E+004  0.00000000000E+000  0.00000000000E+000  0.00000000000E+000  0.00000000000E+000 -0.00000000000E+000  0.00000000000E+000 -0.35391220939E-015  0.35391220939E-015
                    0.37597140865E-001  0.00000000000E+000 -0.51500000000E+002 -0.26990695367E+004  0.00000000000E+000  0.00000000000E+000  0.00000000000E+000  0.00000000000E+000  0.00000000000E+000  0.00000000000E+000  0.26782118142E-015 -0.26782118139E-015
                    0.37597140865E-001  0.00000000000E+000 -0.52500000000E+002 -0.27928438327E+004  0.00000000000E+000  0.00000000000E+000  0.00000000000E+000  0.00000000000E+000  0.00000000000E+000  0.00000000000E+000 -0.66412341913E-019  0.66412366568E-019
                    0.37597140865E-001  0.00000000000E+000 -0.53500000000E+002 -0.28864135326E+004  0.00000000000E+000  0.00000000000E+000  0.00000000000E+000  0.00000000000E+000  0.00000000000E+000  0.00000000000E+000 -0.29064574484E-018  0.29064572784E-018
                    0.37597140865E-001  0.00000000000E+000 -0.54500000000E+002 -0.29800003409E+004  0.00000000000E+000  0.00000000000E+000  0.00000000000E+000  0.00000000000E+000  0.00000000000E+000  0.00000000000E+000 -0.80930777635E-019  0.80930762659E-019
                    0.37597140865E-001  0.00000000000E+000 -0.55500000000E+002 -0.30736094507E+004  0.00000000000E+000  0.00000000000E+000  0.00000000000E+000  0.00000000000E+000  0.00000000000E+000  0.00000000000E+000 -0.16134649096E-019  0.16134624598E-019
                    0.37597140865E-001  0.00000000000E+000 -0.56500000000E+002 -0.31672240947E+004  0.00000000000E+000  0.00000000000E+000  0.00000000000E+000  0.00000000000E+000  0.00000000000E+000  0.00000000000E+000 -0.26665214253E-020  0.26664943544E-020
                    0.37597140865E-001  0.00000000000E+000 -0.57750000000E+002 -0.48899251111E+004  0.00000000000E+000  0.00000000000E+000  0.00000000000E+000  0.00000000000E+000  0.00000000000E+000  0.00000000000E+000 -0.71173823949E-021  0.71175108136E-021
                    0.37597140865E-001  0.00000000000E+000 -0.59750000000E+002 -0.83784488042E+004  0.00000000000E+000  0.00000000000E+000  0.00000000000E+000  0.00000000000E+000  0.00000000000E+000  0.00000000000E+000 -0.45368089042E-023  0.44723988604E-023
                    0.37597140865E-001  0.00000000000E+000 -0.63500000000E+002 -0.17203812664E+005  0.00000000000E+000  0.00000000000E+000  0.00000000000E+000  0.00000000000E+000  0.00000000000E+000  0.00000000000E+000  0.00000000000E+000  0.97524426350E-025
                    0.37597140865E-001  0.00000000000E+000 -0.68500000000E+002 -0.17631716357E+005  0.00000000000E+000  0.00000000000E+000  0.00000000000E+000  0.00000000000E+000  0.00000000000E+000  0.00000000000E+000  0.00000000000E+000  0.31624707256E-028
                    0.37597140865E-001  0.00000000000E+000 -0.76000000000E+002 -0.36072526002E+005  0.00000000000E+000  0.00000000000E+000  0.00000000000E+000  0.00000000000E+000  0.00000000000E+000  0.00000000000E+000  0.00000000000E+000  0.79034701396E-029
                    0.37597140865E-001  0.00000000000E+000 -0.86000000000E+002 -0.36834093075E+005  0.00000000000E+000  0.00000000000E+000  0.00000000000E+000  0.00000000000E+000  0.00000000000E+000  0.00000000000E+000  0.00000000000E+000 -0.23702306550E-028
                    0.37597140865E-001  0.00000000000E+000 -0.93500000000E+002 -0.18825057959E+005  0.00000000000E+000  0.00000000000E+000  0.00000000000E+000  0.00000000000E+000  0.00000000000E+000  0.00000000000E+000  0.00000000000E+000  0.39489746309E-029
                    0.37597140865E-001  0.00000000000E+000 -0.97500000000E+002 -0.11557056279E+005  0.00000000000E+000  0.00000000000E+000  0.00000000000E+000  0.00000000000E+000  0.00000000000E+000  0.00000000000E+000  0.00000000000E+000 -0.35537522073E-028
                    0.37597140865E-001  0.00000000000E+000 -0.10000000000E+003 -0.78850524883E+004  0.00000000000E+000  0.00000000000E+000  0.00000000000E+000  0.00000000000E+000  0.00000000000E+000  0.00000000000E+000  0.00000000000E+000  0.00000000000E+000
                    0.74998205398E-001  0.00000000000E+000 -0.10200000000E+003  0.21789400232E+002  0.00000000000E+000  0.00000000000E+000  0.28993867468E-003  0.28994156677E-008  0.00000000000E+000  0.00000000000E+000  0.00000000000E+000  0.00000000000E+000
                    0.74998205398E-001  0.00000000000E+000 -0.10500000000E+003  0.37771374989E+002  0.00000000000E+000  0.00000000000E+000  0.50080952406E-003  0.50081451955E-008  0.00000000000E+000  0.00000000000E+000  0.00000000000E+000  0.00000000000E+000
                    0.74998205398E-001  0.00000000000E+000 -0.11100000000E+003  0.57743747897E+002  0.00000000000E+000  0.00000000000E+000  0.76016734102E-003  0.76017492357E-008  0.00000000000E+000  0.00000000000E+000  0.00000000000E+000 -0.61456663842E-027
                    0.74998205398E-001  0.00000000000E+000 -0.12300000000E+003  0.41822596540E+002  0.00000000000E+000  0.00000000000E+000  0.54283738784E-003  0.54284280255E-008  0.00000000000E+000  0.00000000000E+000  0.00000000000E+000 -0.61429252678E-027
                    0.74998205398E-001  0.00000000000E+000 -0.14700000000E+003 -0.20981910844E+003  0.00000000000E+000  0.00000000000E+000 -0.26481325525E-002 -0.26481589672E-007  0.00000000000E+000  0.00000000000E+000  0.00000000000E+000  0.00000000000E+000
                    0.74998205398E-001  0.00000000000E+000 -0.19500000000E+003  0.24925995524E+000  0.00000000000E+000  0.00000000000E+000  0.29703803552E-005  0.29704099843E-010  0.00000000000E+000  0.00000000000E+000  0.00000000000E+000  0.24567404821E-026
                    0.83584331342E-001  0.00000000000E+000 -0.25000000000E+000 -0.31934928266E-005 -0.24691327939E-012 -0.23169139050E-010 -0.31343313913E-012 -0.50194716191E-017  0.77876014672E-015 -0.77876014672E-015  0.36767761140E-028 -0.36958363535E-028
                    0.83584331342E-001  0.00000000000E+000 -0.75000000000E+000 -0.10484317666E-002 -0.39626186038E-011 -0.37129962438E-009  0.29732806971E-011  0.47616623708E-016 -0.33272398931E-011  0.33272398931E-011 -0.69859153334E-027  0.69858049502E-027
                    0.83584331342E-001  0.00000000000E+000 -0.15000000000E+001 -0.80280672286E+002 -0.76694316914E-008 -0.65726432597E-006 -0.20717855429E-010 -0.33134835649E-015 -0.27946145961E-006  0.27946145961E-006 -0.25472794637E-021  0.25472794672E-021
                    0.83584331342E-001  0.00000000000E+000 -0.27500000000E+001 -0.15360766419E+003 -0.13807392598E-007 -0.11482151932E-005 -0.81098373457E-010 -0.12965327628E-014 -0.54112795354E-006  0.54112795354E-006 -0.93029120662E-021  0.93029120332E-021
                    0.83584331342E-001  0.00000000000E+000 -0.47500000000E+001 -0.31055185201E+003 -0.27099898960E-007 -0.21839087221E-005 -0.28920989120E-009 -0.46220553100E-014 -0.11067222686E-005  0.11067222686E-005 -0.37319848220E-020  0.37319848231E-020
                    0.83584331342E-001  0.00000000000E+000 -0.85000000000E+001 -0.72527002313E+003 -0.62640502495E-007 -0.48789395102E-005 -0.17246241589E-008 -0.27556550852E-013 -0.26030024035E-005  0.26030024035E-005 -0.24295438564E-019  0.24295438559E-019
                    0.83584331342E-001  0.00000000000E+000 -0.13500000000E+002 -0.83723070519E+003 -0.71303536250E-007 -0.53537806202E-005 -0.92377765303E-008 -0.14758335131E-012 -0.29653728133E-005  0.29653728133E-005 -0.14346171499E-018  0.14346171521E-018
                    0.83584331342E-001  0.00000000000E+000 -0.18500000000E+002 -0.99234190604E+003 -0.79251712844E-007 -0.57240444435E-005 -0.93890834426E-007 -0.14996996041E-011 -0.32396735565E-005  0.32396735565E-005 -0.17883903665E-017  0.17883903664E-017
                    0.83584331342E-001  0.00000000000E+000 -0.23500000000E+002 -0.12404838061E+004 -0.82395323839E-007 -0.57041214251E-005 -0.93742969622E-006 -0.14968980751E-010 -0.31982686478E-005  0.31982686478E-005 -0.28406377684E-016  0.28406377669E-016
                    0.83584331342E-001  0.00000000000E+000 -0.28500000000E+002 -0.20556839938E+004 -0.28871347382E-007 -0.19027640300E-005 -0.40738631336E-004 -0.65059883673E-009 -0.49644007199E-006  0.49644007199E-006 -0.47276315150E-014  0.47276315145E-014
                    0.83584331342E-001  0.00000000000E+000 -0.33500000000E+002 -0.26584998114E+004  0.00000000000E+000  0.00000000000E+000 -0.33867312107E-003 -0.77454606994E-008 -0.00000000000E+000  0.00000000000E+000 -0.28595951240E-013  0.28595951255E-013
                    0.83584331342E-001  0.00000000000E+000 -0.38500000000E+002 -0.28873292045E+004  0.00000000000E+000  0.00000000000E+000 -0.31232014714E-003 -0.95869247698E-008 -0.00000000000E+000  0.00000000000E+000 -0.34322869703E-013  0.34322869682E-013
                    0.83584331342E-001  0.00000000000E+000 -0.42250000000E+002 -0.15641813057E+004  0.00000000000E+000  0.00000000000E+000 -0.14215408591E-003 -0.51951084981E-008 -0.00000000000E+000  0.00000000000E+000 -0.20703642036E-013  0.20703642037E-013
                    0.83584331342E-001  0.00000000000E+000 -0.44250000000E+002 -0.10121066872E+004  0.00000000000E+000  0.00000000000E+000 -0.81631920756E-004 -0.32374361465E-008 -0.00000000000E+000  0.00000000000E+000 -0.14356144959E-013  0.14356144960E-013
                    0.83584331342E-001  0.00000000000E+000 -0.45500000000E+002 -0.72385590129E+003  0.00000000000E+000  0.00000000000E+000 -0.53967121935E-004 -0.22453382874E-008 -0.00000000000E+000  0.00000000000E+000 -0.10728371298E-013  0.10728371295E-013
                    0.83584331342E-001  0.00000000000E+000 -0.46500000000E+002 -0.77288199936E+003  0.00000000000E+000  0.00000000000E+000 -0.54533853857E-004 -0.23540063554E-008 -0.00000000000E+000  0.00000000000E+000 -0.11825904696E-013  0.11825904697E-013
                    0.83584331342E-001  0.00000000000E+000 -0.47500000000E+002 -0.82178250613E+003  0.00000000000E+000  0.00000000000E+000 -0.55466468187E-004 -0.24810192988E-008 -0.00000000000E+000  0.00000000000E+000 -0.12920753786E-013  0.12920753781E-013
                    0.83584331342E-001  0.00000000000E+000 -0.48500000000E+002 -0.87067063022E+003  0.00000000000E+000  0.00000000000E+000 -0.56476032850E-004 -0.26149134875E-008 -0.00000000000E+000  0.00000000000E+000 -0.14044617642E-013  0.14044617649E-013
                    0.83584331342E-001  0.00000000000E+000 -0.49500000000E+002 -0.91970116754E+003  0.00000000000E+000  0.00000000000E+000 -0.57970964631E-004 -0.27824204923E-008 -0.00000000000E+000  0.00000000000E+000 -0.15222135724E-013  0.15222135721E-013
                    0.83584331342E-001  0.00000000000E+000 -0.50500000000E+002 -0.97107737740E+003  0.00000000000E+000  0.00000000000E+000 -0.66391499102E-004 -0.34792949027E-008 -0.00000000000E+000  0.00000000000E+000 -0.16793546584E-013  0.16793546589E-013
                    0.83584331342E-001  0.00000000000E+000 -0.51500000000E+002 -0.10173988600E+004  0.00000000000E+000  0.00000000000E+000  0.72902221733E-004  0.18640762677E-008  0.00000000000E+000  0.00000000000E+000 -0.27240537083E-015  0.27240536501E-015
                    0.83584331342E-001  0.00000000000E+000 -0.52500000000E+002 -0.10665709970E+004  0.00000000000E+000  0.00000000000E+000  0.68089880214E-004  0.99525692024E-009  0.00000000000E+000  0.00000000000E+000 -0.31408617051E-016  0.31408612605E-016
                    0.83584331342E-001  0.00000000000E+000 -0.53500000000E+002 -0.11165064415E+004  0.00000000000E+000  0.00000000000E+000  0.54901242798E-004  0.60369126949E-009  0.00000000000E+000  0.00000000000E+000 -0.18527850191E-017  0.18527891541E-017
                    0.83584331342E-001  0.00000000000E+000 -0.54500000000E+002 -0.11660594444E+004  0.00000000000E+000  0.00000000000E+000  0.46737343912E-004  0.47503244168E-009  0.00000000000E+000  0.00000000000E+000 -0.10435794810E-018  0.10436110757E-018
                    0.83584331342E-001  0.00000000000E+000 -0.55500000000E+002 -0.12153621342E+004  0.00000000000E+000  0.00000000000E+000  0.41747252155E-004  0.41837358291E-009  0.00000000000E+000  0.00000000000E+000  0.55908244418E-019 -0.55902204129E-019
                    0.83584331342E-001  0.00000000000E+000 -0.56500000000E+002 -0.12645666115E+004  0.00000000000E+000  0.00000000000E+000  0.38011707318E-004  0.38021061650E-009  0.00000000000E+000  0.00000000000E+000  0.21178433215E-019 -0.21173706992E-019
                    0.83584331342E-001  0.00000000000E+000 -0.57750000000E+002 -0.19700876292E+004  0.00000000000E+000  0.00000000000E+000  0.51495311860E-004  0.51496495722E-009  0.00000000000E+000  0.00000000000E+000  0.30387883556E-020 -0.30457435901E-020
                    0.83584331342E-001  0.00000000000E+000 -0.59750000000E+002 -0.34045456994E+004  0.00000000000E+000  0.00000000000E+000  0.74595293127E-004  0.74596057581E-009  0.00000000000E+000  0.00000000000E+000  0.19109107206E-021 -0.19033636107E-021
                    0.83584331342E-001  0.00000000000E+000 -0.63500000000E+002 -0.70420997391E+004  0.00000000000E+000  0.00000000000E+000  0.11647183203E-003  0.11647299382E-008  0.00000000000E+000  0.00000000000E+000  0.00000000000E+000 -0.42406718063E-023
                    0.83584331342E-001  0.00000000000E+000 -0.68500000000E+002 -0.72696361943E+004  0.00000000000E+000  0.00000000000E+000  0.76126815233E-004  0.76127574586E-009  0.00000000000E+000  0.00000000000E+000  0.00000000000E+000 -0.16515416262E-025
                    0.83584331342E-001  0.00000000000E+000 -0.76000000000E+002 -0.14974805311E+005  0.00000000000E+000  0.00000000000E+000  0.41025359128E-004  0.41025768349E-009  0.00000000000E+000  0.00000000000E+000  0.00000000000E+000 -0.38846463139E-026
                    0.83584331342E-001  0.00000000000E+000 -0.86000000000E+002 -0.15389207689E+005  0.00000000000E+000  0.00000000000E+000 -0.10032127542E-003 -0.10032227611E-008  0.00000000000E+000  0.00000000000E+000  0.00000000000E+000  0.58244189888E-026
                    0.83584331342E-001  0.00000000000E+000 -0.93500000000E+002 -0.79127894012E+004  0.00000000000E+000  0.00000000000E+000 -0.10600637239E-003 -0.10600742979E-008  0.00000000000E+000  0.00000000000E+000  0.00000000000E+000 -0.19407848892E-026
                    0.83584331342E-001  0.00000000000E+000 -0.97500000000E+002 -0.48895066180E+004  0.00000000000E+000  0.00000000000E+000 -0.84534553183E-004 -0.84535396402E-009  0.00000000000E+000  0.00000000000E+000  0.00000000000E+000 -0.10422248412E-024
                    0.83584331342E-001  0.00000000000E+000 -0.10000000000E+003 -0.33542774560E+004  0.00000000000E+000  0.00000000000E+000 -0.66461866437E-004 -0.66462529384E-009  0.00000000000E+000  0.00000000000E+000  0.00000000000E+000  0.77570113330E-027
                    0.83584331342E-001  0.00000000000E+000 -0.10200000000E+003  0.26727928358E+002  0.00000000000E+000  0.00000000000E+000  0.35651874939E-003  0.35652230560E-008  0.00000000000E+000  0.00000000000E+000  0.00000000000E+000 -0.77737665563E-027
                    0.83584331342E-001  0.00000000000E+000 -0.10500000000E+003  0.46906180763E+002  0.00000000000E+000  0.00000000000E+000  0.62192738918E-003  0.62193359280E-008  0.00000000000E+000  0.00000000000E+000  0.00000000000E+000  0.23329828326E-026
                    0.83584331342E-001  0.00000000000E+000 -0.11100000000E+003  0.71707151832E+002  0.00000000000E+000  0.00000000000E+000  0.94398822447E-003  0.94399764060E-008  0.00000000000E+000  0.00000000000E+000  0.00000000000E+000  0.00000000000E+000
                    0.83584331342E-001  0.00000000000E+000 -0.12300000000E+003  0.51940227644E+002  0.00000000000E+000  0.00000000000E+000  0.67415934977E-003  0.67416607440E-008  0.00000000000E+000  0.00000000000E+000  0.00000000000E+000  0.62163834177E-026
                    0.83584331342E-001  0.00000000000E+000 -0.14700000000E+003 -0.26058871286E+003  0.00000000000E+000  0.00000000000E+000 -0.32888992312E-002 -0.32889320375E-007  0.00000000000E+000  0.00000000000E+000  0.00000000000E+000 -0.12427212431E-025
                    0.83584331342E-001  0.00000000000E+000 -0.19500000000E+003  0.30964561538E+000  0.00000000000E+000  0.00000000000E+000  0.36899840255E-005  0.36900208325E-010  0.00000000000E+000  0.00000000000E+000  0.00000000000E+000 -0.12429848058E-025
                    0.93414398785E-001  0.00000000000E+000 -0.25000000000E+000 -0.42747992748E-005 -0.36448164999E-012 -0.34201182077E-010 -0.30585923359E-012 -0.48981793847E-017  0.25893769218E-014 -0.25893769218E-014  0.55040128388E-028 -0.54951519947E-028
                    0.93414398785E-001  0.00000000000E+000 -0.75000000000E+000 -0.36180015621E-003 -0.84743064032E-011 -0.79404892909E-009  0.34037802777E-011  0.54511005078E-016 -0.82064521159E-012  0.82064521159E-012  0.16294682377E-026 -0.16292038661E-026
                    0.93414398785E-001  0.00000000000E+000 -0.15000000000E+001 -0.69277527277E+001 -0.48317681698E-008 -0.44848764330E-006 -0.29977433213E-011 -0.48010907336E-016 -0.22983288292E-007  0.22983288292E-007 -0.19049288967E-022  0.19049289325E-022
                    0.93414398785E-001  0.00000000000E+000 -0.27500000000E+001 -0.17034734642E+002 -0.82170072419E-008 -0.75618697012E-006 -0.36226241113E-010 -0.58020154741E-015 -0.56677437297E-007  0.56677437297E-007 -0.91516220773E-022  0.91516223326E-022
                    0.93414398785E-001  0.00000000000E+000 -0.47500000000E+001 -0.39322407642E+002 -0.15324471444E-007 -0.13954268348E-005 -0.15668898870E-009 -0.25097277457E-014 -0.13098615377E-006  0.13098615377E-006 -0.42102267781E-021  0.42102267149E-021
                    0.93414398785E-001  0.00000000000E+000 -0.85000000000E+001 -0.99694419934E+002 -0.33932151181E-007 -0.30436715255E-005 -0.10116284169E-008 -0.16206751865E-013 -0.33112345064E-006  0.33112345064E-006 -0.29716249499E-020  0.29716249409E-020
                    0.93414398785E-001  0.00000000000E+000 -0.13500000000E+002 -0.12262993999E+003 -0.37301803529E-007 -0.32850116619E-005 -0.51958893571E-008 -0.83264268255E-013 -0.39800950263E-006  0.39800950263E-006 -0.18634019863E-019  0.18634019905E-019
                    0.93414398785E-001  0.00000000000E+000 -0.18500000000E+002 -0.15577611694E+003 -0.40658778316E-007 -0.35133852322E-005 -0.42831617043E-007 -0.68656762459E-012 -0.46092718160E-006  0.46092718160E-006 -0.24745730932E-018  0.24745731143E-018
                    0.93414398785E-001  0.00000000000E+000 -0.23500000000E+002 -0.21259294480E+003 -0.42917918700E-007 -0.36348881425E-005 -0.34382665975E-006 -0.55128499797E-011 -0.49043999753E-006  0.49043999753E-006 -0.42470705290E-017  0.42470705485E-017
                    0.93414398785E-001  0.00000000000E+000 -0.28500000000E+002 -0.41676992922E+003 -0.23158725905E-007 -0.19153225775E-005 -0.35166504166E-004 -0.56428002583E-009 -0.88185217807E-007  0.88185217807E-007 -0.76489100903E-015  0.76489100708E-015
                    0.93414398785E-001  0.00000000000E+000 -0.33500000000E+002 -0.58634496701E+003  0.00000000000E+000  0.00000000000E+000 -0.43215520511E-003 -0.99175593952E-008 -0.00000000000E+000  0.00000000000E+000 -0.40759733462E-014  0.40759733634E-014
                    0.93414398785E-001  0.00000000000E+000 -0.38500000000E+002 -0.64576299100E+003  0.00000000000E+000  0.00000000000E+000 -0.40635015920E-003 -0.12509473348E-007 -0.00000000000E+000  0.00000000000E+000 -0.53237784248E-014  0.53237784496E-014
                    0.93414398785E-001  0.00000000000E+000 -0.42250000000E+002 -0.35383571859E+003  0.00000000000E+000  0.00000000000E+000 -0.18730485160E-003 -0.68638694288E-008 -0.00000000000E+000  0.00000000000E+000 -0.34351049592E-014  0.34351049460E-014
                    0.93414398785E-001  0.00000000000E+000 -0.44250000000E+002 -0.23168353373E+003  0.00000000000E+000  0.00000000000E+000 -0.10823777339E-003 -0.43045369232E-008 -0.00000000000E+000  0.00000000000E+000 -0.24675241881E-014  0.24675241863E-014
                    0.93414398785E-001  0.00000000000E+000 -0.45500000000E+002 -0.16754650605E+003  0.00000000000E+000  0.00000000000E+000 -0.71791237958E-004 -0.29955894872E-008 -0.00000000000E+000  0.00000000000E+000 -0.18749552694E-014  0.18749552730E-014
                    0.93414398785E-001  0.00000000000E+000 -0.46500000000E+002 -0.18071888295E+003  0.00000000000E+000  0.00000000000E+000 -0.72699411466E-004 -0.31476840280E-008 -0.00000000000E+000  0.00000000000E+000 -0.20835261425E-014  0.20835261392E-014
                    0.93414398785E-001  0.00000000000E+000 -0.47500000000E+002 -0.19389157627E+003  0.00000000000E+000  0.00000000000E+000 -0.74023751437E-004 -0.33216063829E-008 -0.00000000000E+000  0.00000000000E+000 -0.22855460811E-014  0.22855460877E-014
                    0.93414398785E-001  0.00000000000E+000 -0.48500000000E+002 -0.20706244093E+003  0.00000000000E+000  0.00000000000E+000 -0.75327768875E-004 -0.34993150925E-008 -0.00000000000E+000  0.00000000000E+000 -0.24883750777E-014  0.24883750718E-014
                    0.93414398785E-001  0.00000000000E+000 -0.49500000000E+002 -0.22026033431E+003  0.00000000000E+000  0.00000000000E+000 -0.76575971512E-004 -0.36880111572E-008 -0.00000000000E+000  0.00000000000E+000 -0.26983131564E-014  0.26983131576E-014
                    0.93414398785E-001  0.00000000000E+000 -0.50500000000E+002 -0.23388675428E+003  0.00000000000E+000  0.00000000000E+000 -0.76936925075E-004 -0.40455143633E-008 -0.00000000000E+000  0.00000000000E+000 -0.29876992545E-014  0.29876992556E-014
                    0.93414398785E-001  0.00000000000E+000 -0.51500000000E+002 -0.22881572384E+003  0.00000000000E+000  0.00000000000E+000  0.19297085791E-003  0.49342727477E-008  0.00000000000E+000  0.00000000000E+000 -0.56165035175E-016  0.56165031364E-016
                    0.93414398785E-001  0.00000000000E+000 -0.52500000000E+002 -0.24211200079E+003  0.00000000000E+000  0.00000000000E+000  0.18837818395E-003  0.27535006779E-008  0.00000000000E+000  0.00000000000E+000 -0.73467778160E-017  0.73467795463E-017
                    0.93414398785E-001  0.00000000000E+000 -0.53500000000E+002 -0.25691558151E+003  0.00000000000E+000  0.00000000000E+000  0.16414272093E-003  0.18049059380E-008  0.00000000000E+000  0.00000000000E+000 -0.64181239145E-018  0.64181069934E-018
                    0.93414398785E-001  0.00000000000E+000 -0.54500000000E+002 -0.27106761515E+003  0.00000000000E+000  0.00000000000E+000  0.14914073046E-003  0.15158476228E-008  0.00000000000E+000  0.00000000000E+000 -0.10175384691E-018  0.10175643085E-018
                    0.93414398785E-001  0.00000000000E+000 -0.55500000000E+002 -0.28478449997E+003  0.00000000000E+000  0.00000000000E+000  0.14018266096E-003  0.14048523877E-008  0.00000000000E+000  0.00000000000E+000 -0.90901890515E-019  0.90903795100E-019
                    0.93414398785E-001  0.00000000000E+000 -0.56500000000E+002 -0.29833017908E+003  0.00000000000E+000  0.00000000000E+000  0.13361047041E-003  0.13364335021E-008  0.00000000000E+000  0.00000000000E+000  0.43344091369E-020 -0.43437539568E-020
                    0.93414398785E-001  0.00000000000E+000 -0.57750000000E+002 -0.46771062613E+003  0.00000000000E+000  0.00000000000E+000  0.19055218040E-003  0.19055656107E-008  0.00000000000E+000  0.00000000000E+000  0.63521702571E-021 -0.63542712800E-021
                    0.93414398785E-001  0.00000000000E+000 -0.59750000000E+002 -0.81303765215E+003  0.00000000000E+000  0.00000000000E+000  0.29651087360E-003  0.29651391224E-008  0.00000000000E+000  0.00000000000E+000  0.31128507588E-022 -0.39776529097E-022
                    0.93414398785E-001  0.00000000000E+000 -0.63500000000E+002 -0.16927338756E+004  0.00000000000E+000  0.00000000000E+000  0.52725561426E-003  0.52726087355E-008  0.00000000000E+000  0.00000000000E+000  0.00000000000E+000 -0.93875483652E-024
                    0.93414398785E-001  0.00000000000E+000 -0.68500000000E+002 -0.17588364739E+004  0.00000000000E+000  0.00000000000E+000  0.44409937331E-003  0.44410380313E-008  0.00000000000E+000  0.00000000000E+000  0.00000000000E+000  0.19949585464E-025
                    0.93414398785E-001  0.00000000000E+000 -0.76000000000E+002 -0.36488460303E+004  0.00000000000E+000  0.00000000000E+000  0.65225896635E-003  0.65226547253E-008  0.00000000000E+000  0.00000000000E+000  0.00000000000E+000  0.18991127437E-026
                    0.93414398785E-001  0.00000000000E+000 -0.86000000000E+002 -0.37795587824E+004  0.00000000000E+000  0.00000000000E+000  0.34707462455E-003  0.34707808656E-008  0.00000000000E+000  0.00000000000E+000  0.00000000000E+000  0.18984108284E-026