        VARIABLES=                 X                 Y                 Z              HEAT      FLOW_WATER_G        FLOW_AIR_G      FLOW_WATER_L        FLOW_AIR_L     FDIFF_WATER_G       FDIFF_AIR_G     FDIFF_WATER_L       FDIFF_AIR_L
 ZONE T=" 0.3153570E+08 SEC"  I =     2419 
                    0.74998205398E-001  0.00000000000E+000 -0.25000000000E+000 -0.20458734844E-002 -0.25653039858E-011 -0.45900142316E-009 -0.84701613639E-013 -0.13689120958E-017  0.15658118173E-009 -0.15658118173E-009  0.00000000000E+000 -0.00000000000E+000
                    0.74998205398E-001  0.00000000000E+000 -0.75000000000E+000  0.20999108711E-002 -0.70776937634E-013 -0.11990327929E-010 -0.46892699739E-012 -0.75669399418E-017  0.46918175538E-010 -0.46918175538E-010  0.73908396526E-027 -0.73908404149E-027
                    0.37597140865E-001  0.00000000000E+000 -0.15000000000E+001  0.37193934623E+001  0.00000000000E+000  0.00000000000E+000  0.00000000000E+000  0.00000000000E+000 -0.11627544644E-011  0.11627544644E-011 -0.00000000000E+000  0.00000000000E+000
                    0.37597140865E-001  0.00000000000E+000 -0.27500000000E+001  0.56500400674E+001  0.00000000000E+000  0.00000000000E+000  0.00000000000E+000  0.00000000000E+000 -0.17091592936E-011  0.17091592936E-011 -0.00000000000E+000  0.00000000000E+000
                    0.37597140865E-001  0.00000000000E+000 -0.47500000000E+001  0.93666693128E+001  0.00000000000E+000  0.00000000000E+000  0.00000000000E+000  0.00000000000E+000 -0.28243441501E-011  0.28243441501E-011 -0.00000000000E+000  0.00000000000E+000
                    0.37597140865E-001  0.00000000000E+000 -0.85000000000E+001  0.18706482184E+002  0.00000000000E+000  0.00000000000E+000  0.00000000000E+000  0.00000000000E+000 -0.57379422216E-011  0.57379422216E-011 -0.00000000000E+000  0.00000000000E+000
                    0.37597140865E-001  0.00000000000E+000 -0.13500000000E+002  0.22243010299E+002  0.00000000000E+000  0.00000000000E+000  0.00000000000E+000  0.00000000000E+000 -0.61040814159E-011  0.61040814159E-011 -0.00000000000E+000  0.00000000000E+000
                    0.37597140865E-001  0.00000000000E+000 -0.18500000000E+002  0.22228236826E+002  0.00000000000E+000  0.00000000000E+000  0.00000000000E+000  0.00000000000E+000 -0.61340081482E-011  0.61340081482E-011 -0.00000000000E+000  0.00000000000E+000
                    0.37597140865E-001  0.00000000000E+000 -0.23500000000E+002  0.30292405410E+002  0.00000000000E+000  0.00000000000E+000  0.00000000000E+000  0.00000000000E+000 -0.73318225184E-011  0.73318225184E-011 -0.21602453596E-019  0.21602453591E-019
                    0.37597140865E-001  0.00000000000E+000 -0.28500000000E+002  0.25473743855E+002  0.00000000000E+000  0.00000000000E+000  0.00000000000E+000  0.00000000000E+000 -0.33827892028E-011  0.33827892028E-011 -0.42564806714E-017  0.42564806780E-017
                    0.37597140865E-001  0.00000000000E+000 -0.33500000000E+002  0.40662235924E+002  0.00000000000E+000  0.00000000000E+000  0.00000000000E+000  0.00000000000E+000 -0.00000000000E+000  0.00000000000E+000 -0.30419028677E-015  0.30419028678E-015
                    0.37597140865E-001  0.00000000000E+000 -0.38500000000E+002  0.40632867156E+002  0.00000000000E+000  0.00000000000E+000  0.00000000000E+000  0.00000000000E+000 -0.00000000000E+000  0.00000000000E+000 -0.62149990984E-015  0.62149990984E-015
                    0.37597140865E-001  0.00000000000E+000 -0.42250000000E+002  0.20652518011E+002  0.00000000000E+000  0.00000000000E+000  0.00000000000E+000  0.00000000000E+000 -0.00000000000E+000  0.00000000000E+000 -0.46738091521E-015  0.46738091520E-015
                    0.37597140865E-001  0.00000000000E+000 -0.44250000000E+002  0.12376456665E+002  0.00000000000E+000  0.00000000000E+000  0.00000000000E+000  0.00000000000E+000 -0.00000000000E+000  0.00000000000E+000 -0.34543395799E-015  0.34543395799E-015
                    0.37597140865E-001  0.00000000000E+000 -0.45500000000E+002  0.82508726264E+001  0.00000000000E+000  0.00000000000E+000  0.00000000000E+000  0.00000000000E+000 -0.00000000000E+000  0.00000000000E+000 -0.25521774103E-015  0.25521774103E-015
                    0.37597140865E-001  0.00000000000E+000 -0.46500000000E+002  0.82405377206E+001  0.00000000000E+000  0.00000000000E+000  0.00000000000E+000  0.00000000000E+000 -0.00000000000E+000  0.00000000000E+000 -0.27298619883E-015  0.27298619883E-015
                    0.37597140865E-001  0.00000000000E+000 -0.47500000000E+002  0.82357763288E+001  0.00000000000E+000  0.00000000000E+000  0.00000000000E+000  0.00000000000E+000 -0.00000000000E+000  0.00000000000E+000 -0.28935088884E-015  0.28935088884E-015
                    0.37597140865E-001  0.00000000000E+000 -0.48500000000E+002  0.82338254348E+001  0.00000000000E+000  0.00000000000E+000  0.00000000000E+000  0.00000000000E+000 -0.00000000000E+000  0.00000000000E+000 -0.30483285074E-015  0.30483285074E-015
                    0.37597140865E-001  0.00000000000E+000 -0.49500000000E+002  0.82311311731E+001  0.00000000000E+000  0.00000000000E+000  0.00000000000E+000  0.00000000000E+000 -0.00000000000E+000  0.00000000000E+000 -0.32076709483E-015  0.32076709483E-015
                    0.37597140865E-001  0.00000000000E+000 -0.50500000000E+002  0.82367687862E+001  0.00000000000E+000  0.00000000000E+000  0.00000000000E+000  0.00000000000E+000 -0.00000000000E+000  0.00000000000E+000 -0.33988624263E-015  0.33988624263E-015
                    0.37597140865E-001  0.00000000000E+000 -0.51500000000E+002  0.83410381816E+001  0.00000000000E+000  0.00000000000E+000  0.00000000000E+000  0.00000000000E+000 -0.00000000000E+000 -0.00000000000E+000 -0.13628149419E-014  0.13628149419E-014
                    0.37597140865E-001  0.00000000000E+000 -0.52500000000E+002  0.83419324135E+001  0.00000000000E+000  0.00000000000E+000  0.00000000000E+000  0.00000000000E+000  0.00000000000E+000  0.00000000000E+000 -0.68024222233E-015  0.68024222234E-015
                    0.37597140865E-001  0.00000000000E+000 -0.53500000000E+002  0.83527515194E+001  0.00000000000E+000  0.00000000000E+000  0.00000000000E+000  0.00000000000E+000  0.00000000000E+000  0.00000000000E+000 -0.24036229274E-015  0.24036229277E-015
                    0.37597140865E-001  0.00000000000E+000 -0.54500000000E+002  0.83494103695E+001  0.00000000000E+000  0.00000000000E+000  0.00000000000E+000  0.00000000000E+000  0.00000000000E+000  0.00000000000E+000 -0.59509802681E-016  0.59509802698E-016
                    0.37597140865E-001  0.00000000000E+000 -0.55500000000E+002  0.83425167718E+001  0.00000000000E+000  0.00000000000E+000  0.00000000000E+000  0.00000000000E+000  0.00000000000E+000  0.00000000000E+000 -0.11422631591E-016  0.11422631612E-016
                    0.37597140865E-001  0.00000000000E+000 -0.56500000000E+002  0.83400340603E+001  0.00000000000E+000  0.00000000000E+000  0.00000000000E+000  0.00000000000E+000  0.00000000000E+000  0.00000000000E+000 -0.18014948166E-017  0.18014948054E-017
                    0.37597140865E-001  0.00000000000E+000 -0.57750000000E+002  0.12512836323E+002  0.00000000000E+000  0.00000000000E+000  0.00000000000E+000  0.00000000000E+000  0.00000000000E+000  0.00000000000E+000 -0.26228231243E-018  0.26228230335E-018
                    0.37597140865E-001  0.00000000000E+000 -0.59750000000E+002  0.20853588685E+002  0.00000000000E+000  0.00000000000E+000  0.00000000000E+000  0.00000000000E+000  0.00000000000E+000  0.00000000000E+000 -0.24238614708E-019  0.24238655993E-019
                    0.37597140865E-001  0.00000000000E+000 -0.63500000000E+002  0.41782663672E+002  0.00000000000E+000  0.00000000000E+000  0.00000000000E+000  0.00000000000E+000  0.00000000000E+000  0.00000000000E+000 -0.12810586472E-020  0.12811682186E-020
                    0.37597140865E-001  0.00000000000E+000 -0.68500000000E+002  0.41815527590E+002  0.00000000000E+000  0.00000000000E+000  0.00000000000E+000  0.00000000000E+000  0.00000000000E+000  0.00000000000E+000  0.70461804374E-023 -0.70756239427E-023
                    0.37597140865E-001  0.00000000000E+000 -0.76000000000E+002  0.83895465785E+002  0.00000000000E+000  0.00000000000E+000  0.00000000000E+000  0.00000000000E+000  0.00000000000E+000  0.00000000000E+000  0.17746463876E-022 -0.17511330939E-022
                    0.37597140865E-001  0.00000000000E+000 -0.86000000000E+002  0.84426313054E+002  0.00000000000E+000  0.00000000000E+000  0.00000000000E+000  0.00000000000E+000  0.00000000000E+000  0.00000000000E+000 -0.60025709596E-022  0.60280916666E-022
                    0.37597140865E-001  0.00000000000E+000 -0.93500000000E+002  0.42858741876E+002  0.00000000000E+000  0.00000000000E+000  0.00000000000E+000  0.00000000000E+000  0.00000000000E+000  0.00000000000E+000 -0.15659291562E-023  0.13783956634E-023
                    0.37597140865E-001  0.00000000000E+000 -0.97500000000E+002  0.25692521611E+002  0.00000000000E+000  0.00000000000E+000  0.00000000000E+000  0.00000000000E+000  0.00000000000E+000  0.00000000000E+000 -0.84585265479E-023  0.85495593251E-023
                    0.37597140865E-001  0.00000000000E+000 -0.10000000000E+003  0.17083466650E+002  0.00000000000E+000  0.00000000000E+000  0.00000000000E+000  0.00000000000E+000  0.00000000000E+000  0.00000000000E+000  0.26102586433E-023 -0.26660373087E-023
                    0.74998205398E-001  0.00000000000E+000 -0.10200000000E+003  0.49446378808E-001  0.00000000000E+000  0.00000000000E+000  0.10595663023E-007  0.10595768713E-012  0.00000000000E+000  0.00000000000E+000  0.17124117104E-021 -0.17056357606E-021
                    0.74998205398E-001  0.00000000000E+000 -0.10500000000E+003  0.83524438700E-003  0.00000000000E+000  0.00000000000E+000 -0.10370309732E-007 -0.10370413180E-012  0.00000000000E+000  0.00000000000E+000  0.50365202193E-022 -0.46263961073E-022
                    0.74998205398E-001  0.00000000000E+000 -0.11100000000E+003  0.10538841963E-005  0.00000000000E+000  0.00000000000E+000 -0.43939268017E-009 -0.43939706311E-014  0.00000000000E+000  0.00000000000E+000  0.10677665512E-020 -0.10559557904E-020
                    0.74998205398E-001  0.00000000000E+000 -0.12300000000E+003 -0.11668714747E-006  0.00000000000E+000  0.00000000000E+000 -0.50038375501E-011 -0.50038874595E-016  0.00000000000E+000  0.00000000000E+000 -0.19744419757E-020  0.19780105584E-020
                    0.74998205398E-001  0.00000000000E+000 -0.14700000000E+003 -0.60635859104E-008  0.00000000000E+000  0.00000000000E+000  0.00000000000E+000  0.00000000000E+000  0.00000000000E+000  0.00000000000E+000  0.80596393052E-022 -0.65352980395E-022
                    0.74998205398E-001  0.00000000000E+000 -0.19500000000E+003  0.34306531320E-004  0.00000000000E+000  0.00000000000E+000  0.66709948656E-009  0.66710614077E-014  0.00000000000E+000  0.00000000000E+000  0.00000000000E+000 -0.14521526699E-022
                    0.83584331342E-001  0.00000000000E+000 -0.25000000000E+000 -0.15661296118E-002 -0.33059341369E-011 -0.59097828441E-009  0.00000000000E+000  0.00000000000E+000 -0.31780812619E-011  0.31780812619E-011 -0.00000000000E+000  0.00000000000E+000
                    0.83584331342E-001  0.00000000000E+000 -0.75000000000E+000  0.11717636430E-001  0.46737833475E-012  0.79155523008E-010 -0.21820040718E-012 -0.35209205357E-017  0.23245711083E-010 -0.23245711083E-010  0.27742079673E-031 -0.27742063536E-031
                    0.83584331342E-001  0.00000000000E+000 -0.15000000000E+001  0.41640954513E+001  0.59315756883E-010  0.10405677333E-007  0.00000000000E+000  0.00000000000E+000  0.10610206178E-007 -0.10610206178E-007  0.00000000000E+000 -0.00000000000E+000
                    0.83584331342E-001  0.00000000000E+000 -0.27500000000E+001  0.63288242589E+001  0.10171908449E-009  0.16259893287E-007  0.00000000000E+000  0.00000000000E+000  0.16766934129E-007 -0.16766934129E-007  0.00000000000E+000 -0.00000000000E+000
                    0.83584331342E-001  0.00000000000E+000 -0.47500000000E+001  0.10491117531E+002  0.18769321086E-009  0.27888636570E-007  0.00000000000E+000  0.00000000000E+000  0.28772216411E-007 -0.28772216411E-007  0.00000000000E+000 -0.00000000000E+000
                    0.83584331342E-001  0.00000000000E+000 -0.85000000000E+001  0.20949472741E+002  0.36962070827E-009  0.55166068232E-007  0.00000000000E+000  0.00000000000E+000  0.56923982978E-007 -0.56923982978E-007  0.00000000000E+000 -0.00000000000E+000
                    0.83584331342E-001  0.00000000000E+000 -0.13500000000E+002  0.24509555752E+002  0.41336050483E-009  0.62947060652E-007  0.00000000000E+000  0.00000000000E+000  0.64740630120E-007 -0.64740630120E-007  0.00000000000E+000 -0.00000000000E+000
                    0.83584331342E-001  0.00000000000E+000 -0.18500000000E+002  0.24491615028E+002  0.41084119219E-009  0.62492937328E-007  0.00000000000E+000  0.00000000000E+000  0.64254772976E-007 -0.64254772976E-007  0.00000000000E+000 -0.00000000000E+000
                    0.83584331342E-001  0.00000000000E+000 -0.23500000000E+002  0.32919594633E+002  0.40082792791E-009  0.64192107544E-007 -0.92458332304E-007 -0.14952899805E-011  0.66265029087E-007 -0.66265029087E-007  0.16153609430E-021 -0.16153609158E-021
                    0.83584331342E-001  0.00000000000E+000 -0.28500000000E+002  0.28047491073E+002 -0.76702023733E-012 -0.10967888159E-009 -0.55129836210E-008 -0.89100503961E-013  0.54579984036E-009 -0.54579984036E-009  0.82911969440E-016 -0.82911977579E-016
                    0.83584331342E-001  0.00000000000E+000 -0.33500000000E+002  0.44183825544E+002  0.00000000000E+000  0.00000000000E+000 -0.12556293527E-006 -0.30135189312E-011  0.00000000000E+000 -0.00000000000E+000  0.20091012417E-015 -0.20091014435E-015
                    0.83584331342E-001  0.00000000000E+000 -0.38500000000E+002  0.44169155986E+002  0.00000000000E+000  0.00000000000E+000 -0.11852743911E-006 -0.37775944598E-011  0.00000000000E+000 -0.00000000000E+000  0.15540111955E-015 -0.15540115131E-015
                    0.83584331342E-001  0.00000000000E+000 -0.42250000000E+002  0.22400648687E+002  0.00000000000E+000  0.00000000000E+000 -0.44950675912E-007 -0.16979377794E-011  0.00000000000E+000 -0.00000000000E+000  0.58315944041E-016 -0.58315941911E-016
                    0.83584331342E-001  0.00000000000E+000 -0.44250000000E+002  0.13426862661E+002  0.00000000000E+000  0.00000000000E+000 -0.22384418964E-007 -0.91598471661E-012  0.00000000000E+000 -0.00000000000E+000  0.23346377949E-016 -0.23346366941E-016
                    0.83584331342E-001  0.00000000000E+000 -0.45500000000E+002  0.89529389321E+001  0.00000000000E+000  0.00000000000E+000 -0.13582151000E-007 -0.58250976370E-012  0.00000000000E+000 -0.00000000000E+000  0.10840193202E-016 -0.10840193923E-016
                    0.83584331342E-001  0.00000000000E+000 -0.46500000000E+002  0.89411243578E+001  0.00000000000E+000  0.00000000000E+000 -0.13468515901E-007 -0.59884168119E-012  0.00000000000E+000 -0.00000000000E+000  0.80206048318E-017 -0.80206064153E-017
                    0.83584331342E-001  0.00000000000E+000 -0.47500000000E+002  0.89363481300E+001  0.00000000000E+000  0.00000000000E+000 -0.13055602361E-007 -0.60103962329E-012  0.00000000000E+000 -0.00000000000E+000  0.56764492665E-017 -0.56764401597E-017
                    0.83584331342E-001  0.00000000000E+000 -0.48500000000E+002  0.89344808409E+001  0.00000000000E+000  0.00000000000E+000 -0.12631676220E-007 -0.60141396554E-012  0.00000000000E+000 -0.00000000000E+000  0.34888899591E-017 -0.34888837227E-017
                    0.83584331342E-001  0.00000000000E+000 -0.49500000000E+002  0.89316413739E+001  0.00000000000E+000  0.00000000000E+000 -0.12068831750E-007 -0.59362065884E-012  0.00000000000E+000 -0.00000000000E+000  0.12803789606E-017 -0.12803742604E-017
                    0.83584331342E-001  0.00000000000E+000 -0.50500000000E+002  0.89395671370E+001  0.00000000000E+000  0.00000000000E+000 -0.83583339097E-008 -0.42426064229E-012  0.00000000000E+000 -0.00000000000E+000 -0.14509929223E-016  0.14509924420E-016
                    0.83584331342E-001  0.00000000000E+000 -0.51500000000E+002  0.90384766808E+001  0.00000000000E+000  0.00000000000E+000  0.18674305369E-008  0.46731575905E-013  0.00000000000E+000  0.00000000000E+000  0.99279102465E-014 -0.99279102510E-014
                    0.83584331342E-001  0.00000000000E+000 -0.52500000000E+002  0.90392928095E+001  0.00000000000E+000  0.00000000000E+000 -0.31330242931E-008 -0.45466914551E-013  0.00000000000E+000  0.00000000000E+000  0.32174062470E-014 -0.32174062552E-014
                    0.83584331342E-001  0.00000000000E+000 -0.53500000000E+002  0.90519933250E+001  0.00000000000E+000  0.00000000000E+000 -0.37218856324E-008 -0.41281544439E-013  0.00000000000E+000  0.00000000000E+000  0.12052901865E-014 -0.12052901846E-014
                    0.83584331342E-001  0.00000000000E+000 -0.54500000000E+002  0.90479866994E+001  0.00000000000E+000  0.00000000000E+000 -0.38424879143E-008 -0.39259512155E-013  0.00000000000E+000  0.00000000000E+000  0.36315364777E-015 -0.36315365694E-015
                    0.83584331342E-001  0.00000000000E+000 -0.55500000000E+002  0.90400684045E+001  0.00000000000E+000  0.00000000000E+000 -0.38718634759E-008 -0.38859925836E-013  0.00000000000E+000  0.00000000000E+000  0.83890606242E-016 -0.83890602784E-016
                    0.83584331342E-001  0.00000000000E+000 -0.56500000000E+002  0.90369452057E+001  0.00000000000E+000  0.00000000000E+000 -0.38770544717E-008 -0.38791278562E-013  0.00000000000E+000  0.00000000000E+000  0.15536236743E-016 -0.15536234206E-016
                    0.83584331342E-001  0.00000000000E+000 -0.57750000000E+002  0.13558653953E+002  0.00000000000E+000  0.00000000000E+000 -0.58271877285E-008 -0.58275247033E-013  0.00000000000E+000  0.00000000000E+000  0.25759173377E-017 -0.25759231859E-017
                    0.83584331342E-001  0.00000000000E+000 -0.59750000000E+002  0.22595901389E+002  0.00000000000E+000  0.00000000000E+000 -0.97540883675E-008 -0.97542100453E-013  0.00000000000E+000  0.00000000000E+000  0.26634218891E-018 -0.26635968220E-018
                    0.83584331342E-001  0.00000000000E+000 -0.63500000000E+002  0.45222953387E+002  0.00000000000E+000  0.00000000000E+000 -0.19286967338E-007 -0.19287160909E-012  0.00000000000E+000  0.00000000000E+000  0.22872491753E-019 -0.22905175874E-019
                    0.83584331342E-001  0.00000000000E+000 -0.68500000000E+002  0.45263314550E+002  0.00000000000E+000  0.00000000000E+000 -0.19317763750E-007 -0.19317956479E-012  0.00000000000E+000  0.00000000000E+000  0.12742621786E-020 -0.12343491280E-020
                    0.83584331342E-001  0.00000000000E+000 -0.76000000000E+002  0.90727734962E+002  0.00000000000E+000  0.00000000000E+000 -0.38627538855E-007 -0.38627924182E-012  0.00000000000E+000  0.00000000000E+000 -0.14781948875E-019  0.14703761137E-019
                    0.83584331342E-001  0.00000000000E+000 -0.86000000000E+002  0.91253411867E+002  0.00000000000E+000  0.00000000000E+000 -0.38608983952E-007 -0.38609369080E-012  0.00000000000E+000  0.00000000000E+000  0.24212921398E-020 -0.23781761741E-020
                    0.83584331342E-001  0.00000000000E+000 -0.93500000000E+002  0.46301242821E+002  0.00000000000E+000  0.00000000000E+000 -0.19676867172E-007 -0.19677063425E-012  0.00000000000E+000  0.00000000000E+000 -0.95580665806E-021  0.10115756586E-020
                    0.83584331342E-001  0.00000000000E+000 -0.97500000000E+002  0.27752697488E+002  0.00000000000E+000  0.00000000000E+000 -0.13688655451E-007 -0.13688792004E-012  0.00000000000E+000  0.00000000000E+000  0.22945631376E-020 -0.22908296642E-020
                    0.83584331342E-001  0.00000000000E+000 -0.10000000000E+003  0.18445449676E+002  0.00000000000E+000  0.00000000000E+000 -0.33518676377E-007 -0.33519010682E-012  0.00000000000E+000  0.00000000000E+000 -0.30320116315E-020  0.30365965146E-020
                    0.83584331342E-001  0.00000000000E+000 -0.10200000000E+003  0.60003089055E-001  0.00000000000E+000  0.00000000000E+000 -0.15645381787E-007 -0.15645537847E-012  0.00000000000E+000  0.00000000000E+000 -0.94255838609E-021  0.93148090572E-021
                    0.83584331342E-001  0.00000000000E+000 -0.10500000000E+003  0.10349857062E-002  0.00000000000E+000  0.00000000000E+000 -0.12868307145E-007 -0.12868435511E-012  0.00000000000E+000  0.00000000000E+000 -0.76460282146E-021  0.72987119875E-021
                    0.83584331342E-001  0.00000000000E+000 -0.11100000000E+003  0.12965968784E-005  0.00000000000E+000  0.00000000000E+000 -0.54544696938E-009 -0.54545240990E-014  0.00000000000E+000  0.00000000000E+000 -0.14167588573E-019  0.14145465091E-019
                    0.83584331342E-001  0.00000000000E+000 -0.12300000000E+003 -0.14184576294E-006  0.00000000000E+000  0.00000000000E+000 -0.59076174853E-011 -0.59076764124E-016  0.00000000000E+000  0.00000000000E+000  0.20388284043E-021 -0.29385000142E-021
                    0.83584331342E-001  0.00000000000E+000 -0.14700000000E+003  0.21085674096E-009  0.00000000000E+000  0.00000000000E+000  0.00000000000E+000  0.00000000000E+000  0.00000000000E+000  0.00000000000E+000  0.16315911156E-020 -0.15796391692E-020
                    0.83584331342E-001  0.00000000000E+000 -0.19500000000E+003  0.42507788705E-004  0.00000000000E+000  0.00000000000E+000  0.82657508436E-009  0.82658332930E-014  0.00000000000E+000  0.00000000000E+000  0.00000000000E+000  0.00000000000E+000
                    0.93414398785E-001  0.00000000000E+000 -0.25000000000E+000 -0.29327187570E-003 -0.30978920010E-011 -0.55379009480E-009  0.00000000000E+000  0.00000000000E+000 -0.47714451789E-012  0.47714451789E-012 -0.00000000000E+000  0.00000000000E+000
                    0.93414398785E-001  0.00000000000E+000 -0.75000000000E+000  0.22853300637E-001  0.14195220959E-011  0.24039914163E-009  0.39751750198E-011  0.64144084773E-016  0.45286050354E-010 -0.45286050354E-010  0.62129684427E-031 -0.62129461374E-031
                    0.93414398785E-001  0.00000000000E+000 -0.15000000000E+001  0.46125373387E+001  0.62707942971E-010  0.10929305294E-007  0.00000000000E+000  0.00000000000E+000  0.11338781150E-007 -0.11338781150E-007  0.00000000000E+000 -0.00000000000E+000
                    0.93414398785E-001  0.00000000000E+000 -0.27500000000E+001  0.70167485346E+001  0.10697094947E-009  0.16992228371E-007  0.00000000000E+000  0.00000000000E+000  0.18051313004E-007 -0.18051313004E-007  0.00000000000E+000 -0.00000000000E+000
                    0.93414398785E-001  0.00000000000E+000 -0.47500000000E+001  0.11644062003E+002  0.19774053479E-009  0.29205036017E-007  0.00000000000E+000  0.00000000000E+000  0.31058781660E-007 -0.31058781660E-007  0.00000000000E+000 -0.00000000000E+000
                    0.93414398785E-001  0.00000000000E+000 -0.85000000000E+001  0.23256278364E+002  0.38813275334E-009  0.57584332705E-007  0.00000000000E+000  0.00000000000E+000  0.61264322551E-007 -0.61264322551E-007  0.00000000000E+000 -0.00000000000E+000
                    0.93414398785E-001  0.00000000000E+000 -0.13500000000E+002  0.26828885736E+002  0.42820581158E-009  0.64765425003E-007  0.00000000000E+000  0.00000000000E+000  0.68479069346E-007 -0.68479069346E-007  0.00000000000E+000 -0.00000000000E+000
                    0.93414398785E-001  0.00000000000E+000 -0.18500000000E+002  0.26814579043E+002  0.42589025444E-009  0.64346231631E-007  0.00000000000E+000  0.00000000000E+000  0.67994995155E-007 -0.67994995155E-007  0.00000000000E+000 -0.00000000000E+000
                    0.93414398785E-001  0.00000000000E+000 -0.23500000000E+002  0.35757411790E+002  0.42931633534E-009  0.68225971881E-007 -0.76810958955E-007 -0.12421463422E-011  0.72637039147E-007 -0.72637039147E-007  0.14214123739E-021 -0.14214124696E-021
                    0.93414398785E-001  0.00000000000E+000 -0.28500000000E+002  0.30925752886E+002 -0.57286368522E-011 -0.81667011922E-009 -0.10247741838E-007 -0.16561777484E-012  0.60360586295E-009 -0.60360586295E-009  0.91684413457E-016 -0.91684403036E-016
                    0.93414398785E-001  0.00000000000E+000 -0.33500000000E+002  0.48059382809E+002  0.00000000000E+000  0.00000000000E+000 -0.26260317784E-006 -0.63023481942E-011  0.00000000000E+000 -0.00000000000E+000  0.29353095311E-015 -0.29353094934E-015
                    0.93414398785E-001  0.00000000000E+000 -0.38500000000E+002  0.48057796639E+002  0.00000000000E+000  0.00000000000E+000 -0.25131126227E-006 -0.80094542425E-011  0.00000000000E+000 -0.00000000000E+000  0.30956898724E-015 -0.30956894964E-015
                    0.93414398785E-001  0.00000000000E+000 -0.42250000000E+002  0.24324691173E+002  0.00000000000E+000  0.00000000000E+000 -0.95765273237E-007 -0.36173488750E-011  0.00000000000E+000 -0.00000000000E+000  0.16661102466E-015 -0.16661101878E-015
                    0.93414398785E-001  0.00000000000E+000 -0.44250000000E+002  0.14583578552E+002  0.00000000000E+000  0.00000000000E+000 -0.47936418683E-007 -0.19615803919E-011  0.00000000000E+000 -0.00000000000E+000  0.10374766670E-015 -0.10374766936E-015
                    0.93414398785E-001  0.00000000000E+000 -0.45500000000E+002  0.97254689852E+001  0.00000000000E+000  0.00000000000E+000 -0.29183906589E-007 -0.12516326096E-011  0.00000000000E+000 -0.00000000000E+000  0.70664903435E-016 -0.70664900927E-016
                    0.93414398785E-001  0.00000000000E+000 -0.46500000000E+002  0.97131462656E+001  0.00000000000E+000  0.00000000000E+000 -0.29041165974E-007 -0.12912355402E-011  0.00000000000E+000 -0.00000000000E+000  0.71168735842E-016 -0.71168736701E-016
                    0.93414398785E-001  0.00000000000E+000 -0.47500000000E+002  0.97100607713E+001  0.00000000000E+000  0.00000000000E+000 -0.28228955386E-007 -0.12995722150E-011  0.00000000000E+000 -0.00000000000E+000  0.71643971146E-016 -0.71643979226E-016
                    0.93414398785E-001  0.00000000000E+000 -0.48500000000E+002  0.97083830053E+001  0.00000000000E+000  0.00000000000E+000 -0.27351211830E-007 -0.13022331749E-011  0.00000000000E+000 -0.00000000000E+000  0.72064961149E-016 -0.72064960223E-016
                    0.93414398785E-001  0.00000000000E+000 -0.49500000000E+002  0.97056258512E+001  0.00000000000E+000  0.00000000000E+000 -0.26157217485E-007 -0.12865752618E-011  0.00000000000E+000 -0.00000000000E+000  0.72458604698E-016 -0.72458610532E-016
                    0.93414398785E-001  0.00000000000E+000 -0.50500000000E+002  0.97129216233E+001  0.00000000000E+000  0.00000000000E+000 -0.18255880196E-007 -0.92665287857E-012  0.00000000000E+000 -0.00000000000E+000  0.67646786489E-016 -0.67646789331E-016
                    0.93414398785E-001  0.00000000000E+000 -0.51500000000E+002  0.98114641773E+001  0.00000000000E+000  0.00000000000E+000  0.55299238732E-008  0.13818374269E-012  0.00000000000E+000  0.00000000000E+000  0.40521352356E-014 -0.40521352411E-014
                    0.93414398785E-001  0.00000000000E+000 -0.52500000000E+002  0.98120750185E+001  0.00000000000E+000  0.00000000000E+000 -0.65521967401E-008 -0.94902762464E-013  0.00000000000E+000  0.00000000000E+000  0.25654831432E-014 -0.25654831354E-014
                    0.93414398785E-001  0.00000000000E+000 -0.53500000000E+002  0.98245299208E+001  0.00000000000E+000  0.00000000000E+000 -0.78769823571E-008 -0.87285352783E-013  0.00000000000E+000  0.00000000000E+000  0.13291566844E-014 -0.13291566889E-014
                    0.93414398785E-001  0.00000000000E+000 -0.54500000000E+002  0.98202088182E+001  0.00000000000E+000  0.00000000000E+000 -0.81538051688E-008 -0.83283351766E-013  0.00000000000E+000  0.00000000000E+000  0.44649860793E-015 -0.44649859929E-015
                    0.93414398785E-001  0.00000000000E+000 -0.55500000000E+002  0.98130126658E+001  0.00000000000E+000  0.00000000000E+000 -0.82313459686E-008 -0.82607819052E-013  0.00000000000E+000  0.00000000000E+000  0.10747666233E-015 -0.10747666631E-015
                    0.93414398785E-001  0.00000000000E+000 -0.56500000000E+002  0.98094365210E+001  0.00000000000E+000  0.00000000000E+000 -0.82455842749E-008 -0.82498822545E-013  0.00000000000E+000  0.00000000000E+000  0.20232824808E-016 -0.20232828971E-016
                    0.93414398785E-001  0.00000000000E+000 -0.57750000000E+002  0.14717674965E+002  0.00000000000E+000  0.00000000000E+000 -0.12391395488E-007 -0.12392093516E-012  0.00000000000E+000  0.00000000000E+000  0.34420849545E-017 -0.34420854027E-017
                    0.93414398785E-001  0.00000000000E+000 -0.59750000000E+002  0.24527617629E+002  0.00000000000E+000  0.00000000000E+000 -0.20754598217E-007 -0.20754855194E-012  0.00000000000E+000  0.00000000000E+000  0.36073235360E-018 -0.36071959001E-018
                    0.93414398785E-001  0.00000000000E+000 -0.63500000000E+002  0.49044552392E+002  0.00000000000E+000  0.00000000000E+000 -0.41072748071E-007 -0.41073160128E-012  0.00000000000E+000  0.00000000000E+000  0.20652640999E-019 -0.20634908051E-019
                    0.93414398785E-001  0.00000000000E+000 -0.68500000000E+002  0.49089955349E+002  0.00000000000E+000  0.00000000000E+000 -0.41102503380E-007 -0.41102913442E-012  0.00000000000E+000  0.00000000000E+000 -0.13685792416E-020  0.13293137658E-020
                    0.93414398785E-001  0.00000000000E+000 -0.76000000000E+002  0.98331773546E+002  0.00000000000E+000  0.00000000000E+000 -0.82307336882E-007 -0.82308158039E-012  0.00000000000E+000  0.00000000000E+000  0.53491727920E-020 -0.53264477367E-020
                    0.93414398785E-001  0.00000000000E+000 -0.86000000000E+002  0.98849279686E+002  0.00000000000E+000  0.00000000000E+000 -0.82218070064E-007 -0.82218890180E-012  0.00000000000E+000  0.00000000000E+000 -0.12440505640E-021  0.71113009993E-022