        VARIABLES=                 X                 Y                 Z              HEAT      FLOW_WATER_G        FLOW_AIR_G      FLOW_WATER_L        FLOW_AIR_L     FDIFF_WATER_G       FDIFF_AIR_G     FDIFF_WATER_L       FDIFF_AIR_L
 ZONE T=" 0.3153570E+08 SEC"  I =     2419 
                    0.74998205398E-001  0.00000000000E+000 -0.25000000000E+000 -0.20702518879E-002 -0.39243514501E-012 -0.69572752266E-010 -0.45299133774E-017 -0.73133553635E-022 -0.10470576655E-010  0.10470576655E-010  0.00000000000E+000 -0.00000000000E+000
                    0.74998205398E-001  0.00000000000E+000 -0.75000000000E+000  0.20650925188E-002 -0.12978257579E-012 -0.21471895979E-010 -0.11458806620E-014 -0.18486469300E-019  0.52835315485E-010 -0.52835315485E-010  0.62326821389E-025 -0.62326827817E-025
                    0.37597140865E-001  0.00000000000E+000 -0.15000000000E+001  0.58666987246E+001  0.00000000000E+000  0.00000000000E+000  0.00000000000E+000  0.00000000000E+000 -0.99890878163E-012  0.99890878163E-012 -0.00000000000E+000  0.00000000000E+000
                    0.37597140865E-001  0.00000000000E+000 -0.27500000000E+001  0.89138616300E+001  0.00000000000E+000  0.00000000000E+000  0.00000000000E+000  0.00000000000E+000 -0.14457511624E-011  0.14457511624E-011 -0.00000000000E+000  0.00000000000E+000
                    0.37597140865E-001  0.00000000000E+000 -0.47500000000E+001  0.14840386848E+002  0.00000000000E+000  0.00000000000E+000  0.00000000000E+000  0.00000000000E+000 -0.22757972370E-011  0.22757972370E-011 -0.00000000000E+000  0.00000000000E+000
                    0.37597140865E-001  0.00000000000E+000 -0.85000000000E+001  0.29526119510E+002  0.00000000000E+000  0.00000000000E+000  0.00000000000E+000  0.00000000000E+000 -0.41971319770E-011  0.41971319770E-011 -0.10365291147E-018  0.10365291153E-018
                    0.37597140865E-001  0.00000000000E+000 -0.13500000000E+002  0.41353831525E+002  0.00000000000E+000  0.00000000000E+000  0.00000000000E+000  0.00000000000E+000 -0.61374348934E-011  0.61374348934E-011 -0.83528710793E-018  0.83528710789E-018
                    0.37597140865E-001  0.00000000000E+000 -0.18500000000E+002  0.40697158692E+002  0.00000000000E+000  0.00000000000E+000  0.00000000000E+000  0.00000000000E+000 -0.53645468543E-011  0.53645468543E-011 -0.71674702016E-017  0.71674701938E-017
                    0.37597140865E-001  0.00000000000E+000 -0.23500000000E+002  0.49352916654E+002  0.00000000000E+000  0.00000000000E+000  0.00000000000E+000  0.00000000000E+000 -0.58083165556E-011  0.58083165556E-011 -0.97928030094E-017  0.97928030193E-017
                    0.37597140865E-001  0.00000000000E+000 -0.28500000000E+002  0.48154193365E+002  0.00000000000E+000  0.00000000000E+000  0.00000000000E+000  0.00000000000E+000 -0.49952012160E-011  0.49952012160E-011 -0.84385227910E-017  0.84385227793E-017
                    0.37597140865E-001  0.00000000000E+000 -0.33500000000E+002  0.58019902220E+002  0.00000000000E+000  0.00000000000E+000  0.00000000000E+000  0.00000000000E+000 -0.39894734089E-011  0.39894734089E-011 -0.32709512452E-016  0.32709512457E-016
                    0.37597140865E-001  0.00000000000E+000 -0.38500000000E+002  0.57923384967E+002  0.00000000000E+000  0.00000000000E+000  0.00000000000E+000  0.00000000000E+000  0.00000000000E+000 -0.00000000000E+000  0.29435744654E-015 -0.29435744653E-015
                    0.37597140865E-001  0.00000000000E+000 -0.42250000000E+002  0.28604387257E+002  0.00000000000E+000  0.00000000000E+000  0.00000000000E+000  0.00000000000E+000 -0.00000000000E+000  0.00000000000E+000 -0.20597425300E-016  0.20597425308E-016
                    0.37597140865E-001  0.00000000000E+000 -0.44250000000E+002  0.17164461222E+002  0.00000000000E+000  0.00000000000E+000  0.00000000000E+000  0.00000000000E+000 -0.00000000000E+000  0.00000000000E+000 -0.80572175504E-016  0.80572175500E-016
                    0.37597140865E-001  0.00000000000E+000 -0.45500000000E+002  0.11435163635E+002  0.00000000000E+000  0.00000000000E+000  0.00000000000E+000  0.00000000000E+000 -0.00000000000E+000  0.00000000000E+000 -0.79040084065E-016  0.79040084068E-016
                    0.37597140865E-001  0.00000000000E+000 -0.46500000000E+002  0.11426198746E+002  0.00000000000E+000  0.00000000000E+000  0.00000000000E+000  0.00000000000E+000 -0.00000000000E+000  0.00000000000E+000 -0.97123295885E-016  0.97123295887E-016
                    0.37597140865E-001  0.00000000000E+000 -0.47500000000E+002  0.11438074110E+002  0.00000000000E+000  0.00000000000E+000  0.00000000000E+000  0.00000000000E+000 -0.00000000000E+000  0.00000000000E+000 -0.11452631152E-015  0.11452631152E-015
                    0.37597140865E-001  0.00000000000E+000 -0.48500000000E+002  0.11424639845E+002  0.00000000000E+000  0.00000000000E+000  0.00000000000E+000  0.00000000000E+000 -0.00000000000E+000  0.00000000000E+000 -0.13087482710E-015  0.13087482710E-015
                    0.37597140865E-001  0.00000000000E+000 -0.49500000000E+002  0.11430296772E+002  0.00000000000E+000  0.00000000000E+000  0.00000000000E+000  0.00000000000E+000 -0.00000000000E+000  0.00000000000E+000 -0.14792352074E-015  0.14792352074E-015
                    0.37597140865E-001  0.00000000000E+000 -0.50500000000E+002  0.11386861597E+002  0.00000000000E+000  0.00000000000E+000  0.00000000000E+000  0.00000000000E+000 -0.00000000000E+000  0.00000000000E+000 -0.16518664310E-015  0.16518664310E-015
                    0.37597140865E-001  0.00000000000E+000 -0.51500000000E+002  0.11378621858E+002  0.00000000000E+000  0.00000000000E+000  0.00000000000E+000  0.00000000000E+000 -0.00000000000E+000 -0.00000000000E+000 -0.67973131972E-014  0.67973131972E-014
                    0.37597140865E-001  0.00000000000E+000 -0.52500000000E+002  0.11373992392E+002  0.00000000000E+000  0.00000000000E+000  0.00000000000E+000  0.00000000000E+000 -0.00000000000E+000 -0.00000000000E+000 -0.90572815996E-014  0.90572815996E-014
                    0.37597140865E-001  0.00000000000E+000 -0.53500000000E+002  0.11374953632E+002  0.00000000000E+000  0.00000000000E+000  0.00000000000E+000  0.00000000000E+000 -0.00000000000E+000 -0.00000000000E+000 -0.80090454836E-014  0.80090454836E-014
                    0.37597140865E-001  0.00000000000E+000 -0.54500000000E+002  0.11373806438E+002  0.00000000000E+000  0.00000000000E+000  0.00000000000E+000  0.00000000000E+000  0.00000000000E+000  0.00000000000E+000 -0.55903316564E-014  0.55903316564E-014
                    0.37597140865E-001  0.00000000000E+000 -0.55500000000E+002  0.11377373646E+002  0.00000000000E+000  0.00000000000E+000  0.00000000000E+000  0.00000000000E+000  0.00000000000E+000  0.00000000000E+000 -0.32753316649E-014  0.32753316649E-014
                    0.37597140865E-001  0.00000000000E+000 -0.56500000000E+002  0.11374088364E+002  0.00000000000E+000  0.00000000000E+000  0.00000000000E+000  0.00000000000E+000  0.00000000000E+000  0.00000000000E+000 -0.16480062065E-014  0.16480062065E-014
                    0.37597140865E-001  0.00000000000E+000 -0.57750000000E+002  0.17064307006E+002  0.00000000000E+000  0.00000000000E+000  0.00000000000E+000  0.00000000000E+000  0.00000000000E+000  0.00000000000E+000 -0.84001695439E-015  0.84001695445E-015
                    0.37597140865E-001  0.00000000000E+000 -0.59750000000E+002  0.28441700665E+002  0.00000000000E+000  0.00000000000E+000  0.00000000000E+000  0.00000000000E+000  0.00000000000E+000  0.00000000000E+000 -0.27433741021E-015  0.27433741020E-015
                    0.37597140865E-001  0.00000000000E+000 -0.63500000000E+002  0.56250986245E+002  0.00000000000E+000  0.00000000000E+000  0.00000000000E+000  0.00000000000E+000  0.00000000000E+000  0.00000000000E+000 -0.49898235417E-016  0.49898235531E-016
                    0.37597140865E-001  0.00000000000E+000 -0.68500000000E+002  0.56243600606E+002  0.00000000000E+000  0.00000000000E+000  0.00000000000E+000  0.00000000000E+000  0.00000000000E+000  0.00000000000E+000 -0.39128572794E-017  0.39128572534E-017
                    0.37597140865E-001  0.00000000000E+000 -0.76000000000E+002  0.11177785997E+003  0.00000000000E+000  0.00000000000E+000  0.00000000000E+000  0.00000000000E+000  0.00000000000E+000  0.00000000000E+000 -0.28157613465E-018  0.28157629873E-018
                    0.37597140865E-001  0.00000000000E+000 -0.86000000000E+002  0.11154969898E+003  0.00000000000E+000  0.00000000000E+000  0.00000000000E+000  0.00000000000E+000  0.00000000000E+000  0.00000000000E+000 -0.89224031064E-020  0.89220047857E-020
                    0.37597140865E-001  0.00000000000E+000 -0.93500000000E+002  0.59568818477E+002  0.00000000000E+000  0.00000000000E+000  0.00000000000E+000  0.00000000000E+000  0.00000000000E+000  0.00000000000E+000 -0.29754033744E-021  0.29774560909E-021
                    0.37597140865E-001  0.00000000000E+000 -0.97500000000E+002  0.35768627158E+002  0.00000000000E+000  0.00000000000E+000  0.00000000000E+000  0.00000000000E+000  0.00000000000E+000  0.00000000000E+000  0.43822342451E-022 -0.43953269188E-022
                    0.37597140865E-001  0.00000000000E+000 -0.10000000000E+003  0.23782489350E+002  0.00000000000E+000  0.00000000000E+000  0.00000000000E+000  0.00000000000E+000  0.00000000000E+000  0.00000000000E+000 -0.38076426935E-022  0.38151931488E-022
                    0.74998205398E-001  0.00000000000E+000 -0.10200000000E+003  0.45980437815E-001  0.00000000000E+000  0.00000000000E+000 -0.32780017457E-006 -0.32780344497E-011  0.00000000000E+000  0.00000000000E+000 -0.36735746428E-021  0.36768580427E-021
                    0.74998205398E-001  0.00000000000E+000 -0.10500000000E+003  0.18409812462E-002  0.00000000000E+000  0.00000000000E+000 -0.99042100840E-009 -0.99043089149E-014  0.00000000000E+000  0.00000000000E+000  0.90572877162E-022 -0.85245449273E-022
                    0.74998205398E-001  0.00000000000E+000 -0.11100000000E+003  0.34092931776E-004  0.00000000000E+000  0.00000000000E+000 -0.18944105479E-010 -0.18944294364E-015  0.00000000000E+000  0.00000000000E+000  0.40247977287E-022 -0.48854777789E-022
                    0.74998205398E-001  0.00000000000E+000 -0.12300000000E+003  0.11018772871E-006  0.00000000000E+000  0.00000000000E+000 -0.14790500113E-011 -0.14790647846E-016  0.00000000000E+000  0.00000000000E+000  0.64381122991E-021 -0.61308858670E-021
                    0.74998205398E-001  0.00000000000E+000 -0.14700000000E+003  0.88517192905E-006  0.00000000000E+000  0.00000000000E+000  0.72883336040E-011  0.72884062705E-016  0.00000000000E+000  0.00000000000E+000 -0.24148786229E-021  0.24053595244E-021
                    0.74998205398E-001  0.00000000000E+000 -0.19500000000E+003  0.46762002487E-001  0.00000000000E+000  0.00000000000E+000  0.55725851782E-006  0.55726407195E-011  0.00000000000E+000  0.00000000000E+000 -0.64401473018E-020  0.64527773057E-020
                    0.83584331342E-001  0.00000000000E+000 -0.25000000000E+000 -0.12358434217E-002 -0.34345008085E-012 -0.60892122037E-010  0.00000000000E+000  0.00000000000E+000 -0.24688512684E-011  0.24688512684E-011 -0.00000000000E+000  0.00000000000E+000
                    0.83584331342E-001  0.00000000000E+000 -0.75000000000E+000  0.13626490183E-001 -0.27885273228E-012 -0.46121687185E-010  0.79230655376E-010  0.12781545618E-014  0.27413461265E-010 -0.27413461265E-010  0.84595846105E-027 -0.84595298598E-027
                    0.83584331342E-001  0.00000000000E+000 -0.15000000000E+001  0.61668564535E+001  0.75779989133E-010  0.12925716956E-007  0.00000000000E+000  0.00000000000E+000  0.13171381221E-007 -0.13171381221E-007  0.00000000000E+000 -0.00000000000E+000
                    0.83584331342E-001  0.00000000000E+000 -0.27500000000E+001  0.93833334848E+001  0.14525497064E-009  0.21622564975E-007  0.00000000000E+000  0.00000000000E+000  0.21999497766E-007 -0.21999497766E-007  0.00000000000E+000 -0.00000000000E+000
                    0.83584331342E-001  0.00000000000E+000 -0.47500000000E+001  0.15622009704E+002  0.30557883464E-009  0.39522351454E-007  0.00000000000E+000  0.00000000000E+000  0.40151982960E-007 -0.40151982960E-007  0.00000000000E+000 -0.00000000000E+000
                    0.83584331342E-001  0.00000000000E+000 -0.85000000000E+001  0.31079074494E+002  0.66686424169E-009  0.79065294805E-007 -0.94983584575E-007 -0.15275078659E-011  0.80186737059E-007 -0.80186737059E-007  0.11688845345E-020 -0.11688844772E-020
                    0.83584331342E-001  0.00000000000E+000 -0.13500000000E+002  0.43678983478E+002  0.77182052241E-009  0.98269857942E-007 -0.12861731432E-006 -0.20711131619E-011  0.99898386516E-007 -0.99898386516E-007  0.10140034919E-019 -0.10140034641E-019
                    0.83584331342E-001  0.00000000000E+000 -0.18500000000E+002  0.42990574368E+002  0.63529602415E-009  0.77940483424E-007 -0.92286030108E-007 -0.14859272859E-011  0.79430023037E-007 -0.79430023037E-007  0.31740590973E-018 -0.31740589517E-018
                    0.83584331342E-001  0.00000000000E+000 -0.23500000000E+002  0.52356412646E+002  0.38133588336E-009  0.47152296637E-007 -0.60315423905E-007 -0.97160717869E-012  0.48662138518E-007 -0.48662138518E-007  0.77637574636E-017 -0.77637574939E-017
                    0.83584331342E-001  0.00000000000E+000 -0.28500000000E+002  0.51147077399E+002  0.18070086711E-009  0.21493014843E-007 -0.40641838332E-007 -0.65457547190E-012  0.22624287111E-007 -0.22624287111E-007  0.31078678703E-016 -0.31078677135E-016
                    0.83584331342E-001  0.00000000000E+000 -0.33500000000E+002  0.62036863393E+002 -0.54435147440E-013 -0.71047533109E-011 -0.22855750900E-006 -0.40524236286E-011  0.13241277945E-011 -0.13241277945E-011  0.42830883402E-015 -0.42830884447E-015
                    0.83584331342E-001  0.00000000000E+000 -0.38500000000E+002  0.61959239453E+002  0.00000000000E+000  0.00000000000E+000 -0.18701460178E-006 -0.47634170462E-011  0.00000000000E+000 -0.00000000000E+000  0.83231568066E-016 -0.83231578488E-016
                    0.83584331342E-001  0.00000000000E+000 -0.42250000000E+002  0.30670271709E+002  0.00000000000E+000  0.00000000000E+000 -0.76265104544E-007 -0.23928784519E-011  0.00000000000E+000 -0.00000000000E+000 -0.89227775955E-016  0.89227755079E-016
                    0.83584331342E-001  0.00000000000E+000 -0.44250000000E+002  0.18409106566E+002  0.00000000000E+000  0.00000000000E+000 -0.40241614769E-007 -0.13899742844E-011  0.00000000000E+000 -0.00000000000E+000 -0.10788376051E-015  0.10788376872E-015
                    0.83584331342E-001  0.00000000000E+000 -0.45500000000E+002  0.12265364356E+002  0.00000000000E+000  0.00000000000E+000 -0.24962973930E-007 -0.91180391109E-012  0.00000000000E+000 -0.00000000000E+000 -0.90607861116E-016  0.90607852706E-016
                    0.83584331342E-001  0.00000000000E+000 -0.46500000000E+002  0.12256288907E+002  0.00000000000E+000  0.00000000000E+000 -0.23918963115E-007 -0.91179712297E-012  0.00000000000E+000 -0.00000000000E+000 -0.10294695670E-015  0.10294695902E-015
                    0.83584331342E-001  0.00000000000E+000 -0.47500000000E+002  0.12270476855E+002  0.00000000000E+000  0.00000000000E+000 -0.23154382420E-007 -0.91964076162E-012  0.00000000000E+000 -0.00000000000E+000 -0.11459983045E-015  0.11459983076E-015
                    0.83584331342E-001  0.00000000000E+000 -0.48500000000E+002  0.12255864424E+002  0.00000000000E+000  0.00000000000E+000 -0.22378125031E-007 -0.92461891289E-012  0.00000000000E+000 -0.00000000000E+000 -0.12577362928E-015  0.12577363449E-015
                    0.83584331342E-001  0.00000000000E+000 -0.49500000000E+002  0.12262505408E+002  0.00000000000E+000  0.00000000000E+000 -0.21286436679E-007 -0.91360912831E-012  0.00000000000E+000 -0.00000000000E+000 -0.13748674314E-015  0.13748674612E-015
                    0.83584331342E-001  0.00000000000E+000 -0.50500000000E+002  0.12221231776E+002  0.00000000000E+000  0.00000000000E+000 -0.96249776126E-008 -0.42714861946E-012  0.00000000000E+000 -0.00000000000E+000 -0.62341359681E-015  0.62341359739E-015
                    0.83584331342E-001  0.00000000000E+000 -0.51500000000E+002  0.12226758154E+002  0.00000000000E+000  0.00000000000E+000 -0.90406540919E-008 -0.36334860383E-012  0.00000000000E+000  0.00000000000E+000 -0.18873687335E-014  0.18873687251E-014
                    0.83584331342E-001  0.00000000000E+000 -0.52500000000E+002  0.12221064083E+002  0.00000000000E+000  0.00000000000E+000 -0.90200245436E-008 -0.33729253769E-012  0.00000000000E+000  0.00000000000E+000 -0.24964341360E-014  0.24964341418E-014
                    0.83584331342E-001  0.00000000000E+000 -0.53500000000E+002  0.12222252413E+002  0.00000000000E+000  0.00000000000E+000 -0.90347034041E-008 -0.28469038083E-012  0.00000000000E+000  0.00000000000E+000 -0.22532246830E-014  0.22532246780E-014
                    0.83584331342E-001  0.00000000000E+000 -0.54500000000E+002  0.12220869478E+002  0.00000000000E+000  0.00000000000E+000 -0.90446595805E-008 -0.22038662239E-012  0.00000000000E+000  0.00000000000E+000 -0.16492070846E-014  0.16492070883E-014
                    0.83584331342E-001  0.00000000000E+000 -0.55500000000E+002  0.12225302232E+002  0.00000000000E+000  0.00000000000E+000 -0.90673668277E-008 -0.16517760011E-012  0.00000000000E+000  0.00000000000E+000 -0.10265124812E-014  0.10265124840E-014
                    0.83584331342E-001  0.00000000000E+000 -0.56500000000E+002  0.12221258989E+002  0.00000000000E+000  0.00000000000E+000 -0.90725027931E-008 -0.12764880560E-012  0.00000000000E+000  0.00000000000E+000 -0.54683161882E-015  0.54683162304E-015
                    0.83584331342E-001  0.00000000000E+000 -0.57750000000E+002  0.18335824525E+002  0.00000000000E+000  0.00000000000E+000 -0.13643585453E-007 -0.15505524453E-012  0.00000000000E+000  0.00000000000E+000 -0.30896043924E-015  0.30896042641E-015
                    0.83584331342E-001  0.00000000000E+000 -0.59750000000E+002  0.30560222194E+002  0.00000000000E+000  0.00000000000E+000 -0.22833474027E-007 -0.23437948968E-012  0.00000000000E+000  0.00000000000E+000 -0.10117535947E-015  0.10117535273E-015
                    0.83584331342E-001  0.00000000000E+000 -0.63500000000E+002  0.60481401763E+002  0.00000000000E+000  0.00000000000E+000 -0.45884157450E-007 -0.45994132363E-012  0.00000000000E+000  0.00000000000E+000 -0.21636549238E-016  0.21636521020E-016
                    0.83584331342E-001  0.00000000000E+000 -0.68500000000E+002  0.60472349798E+002  0.00000000000E+000  0.00000000000E+000 -0.46200086255E-007 -0.46209144203E-012  0.00000000000E+000  0.00000000000E+000 -0.18618675370E-017  0.18618854582E-017
                    0.83584331342E-001  0.00000000000E+000 -0.76000000000E+002  0.12023796308E+003  0.00000000000E+000  0.00000000000E+000 -0.93290506177E-007 -0.93292058402E-012  0.00000000000E+000  0.00000000000E+000 -0.13793108531E-018  0.13787420699E-018
                    0.83584331342E-001  0.00000000000E+000 -0.86000000000E+002  0.12005216152E+003  0.00000000000E+000  0.00000000000E+000 -0.94307222724E-007 -0.94308183423E-012  0.00000000000E+000  0.00000000000E+000  0.19104941856E-020 -0.19186119979E-020
                    0.83584331342E-001  0.00000000000E+000 -0.93500000000E+002  0.64020749839E+002  0.00000000000E+000  0.00000000000E+000 -0.48887518082E-007 -0.48888006445E-012  0.00000000000E+000  0.00000000000E+000  0.49680496839E-020 -0.49854414265E-020
                    0.83584331342E-001  0.00000000000E+000 -0.97500000000E+002  0.38443930098E+002  0.00000000000E+000  0.00000000000E+000 -0.30835710610E-007 -0.30836018279E-012  0.00000000000E+000  0.00000000000E+000 -0.28669413137E-020  0.28918252350E-020
                    0.83584331342E-001  0.00000000000E+000 -0.10000000000E+003  0.25549237307E+002  0.00000000000E+000  0.00000000000E+000 -0.27935281556E-007 -0.27935560397E-012  0.00000000000E+000  0.00000000000E+000 -0.13879337364E-019  0.13876403894E-019
                    0.83584331342E-001  0.00000000000E+000 -0.10200000000E+003  0.62117710076E-001  0.00000000000E+000  0.00000000000E+000 -0.32889140347E-006 -0.32889468501E-011  0.00000000000E+000  0.00000000000E+000 -0.40979733800E-020  0.41146584333E-020
                    0.83584331342E-001  0.00000000000E+000 -0.10500000000E+003  0.22839215622E-002  0.00000000000E+000  0.00000000000E+000 -0.12087167541E-008 -0.12087288153E-013  0.00000000000E+000  0.00000000000E+000  0.00000000000E+000 -0.31587869322E-022
                    0.83584331342E-001  0.00000000000E+000 -0.11100000000E+003  0.42351864689E-004  0.00000000000E+000  0.00000000000E+000 -0.23944133709E-010 -0.23944372447E-015  0.00000000000E+000  0.00000000000E+000 -0.81448810155E-021  0.85152850645E-021
                    0.83584331342E-001  0.00000000000E+000 -0.12300000000E+003  0.16532776767E-006  0.00000000000E+000  0.00000000000E+000 -0.16304094235E-011 -0.16304257083E-016  0.00000000000E+000  0.00000000000E+000  0.61079039638E-021 -0.65614734924E-021
                    0.83584331342E-001  0.00000000000E+000 -0.14700000000E+003  0.13568873557E-005  0.00000000000E+000  0.00000000000E+000  0.11078170625E-010  0.11078281078E-015  0.00000000000E+000  0.00000000000E+000 -0.40738945806E-021  0.28867113729E-021
                    0.83584331342E-001  0.00000000000E+000 -0.19500000000E+003  0.58072526034E-001  0.00000000000E+000  0.00000000000E+000  0.69204499514E-006  0.69205189274E-011  0.00000000000E+000  0.00000000000E+000 -0.73313652494E-020  0.69756382155E-020
                    0.93414398785E-001  0.00000000000E+000 -0.25000000000E+000  0.27079100913E-003 -0.32198733286E-012 -0.57087035809E-010  0.00000000000E+000  0.00000000000E+000  0.54225002902E-012 -0.54225002902E-012  0.00000000000E+000 -0.00000000000E+000
                    0.93414398785E-001  0.00000000000E+000 -0.75000000000E+000  0.27782604009E-001 -0.10493129181E-012 -0.17354920376E-010  0.93580532352E-010  0.15096469127E-014  0.55654502236E-010 -0.55654502236E-010  0.71612651909E-026 -0.71612761203E-026
                    0.93414398785E-001  0.00000000000E+000 -0.15000000000E+001  0.64907122202E+001  0.77040763967E-010  0.13041718188E-007  0.30584915407E-009  0.49353425488E-014  0.13544930912E-007 -0.13544930912E-007  0.00000000000E+000 -0.00000000000E+000
                    0.93414398785E-001  0.00000000000E+000 -0.27500000000E+001  0.98942823075E+001  0.15007166899E-009  0.22174030633E-007  0.14713367907E-008  0.23712139038E-013  0.22948992259E-007 -0.22948992259E-007  0.00000000000E+000 -0.00000000000E+000
                    0.93414398785E-001  0.00000000000E+000 -0.47500000000E+001  0.16478637187E+002  0.31901857075E-009  0.40967466890E-007  0.52326148208E-008  0.84205752125E-013  0.42254827528E-007 -0.42254827528E-007  0.00000000000E+000 -0.00000000000E+000
                    0.93414398785E-001  0.00000000000E+000 -0.85000000000E+001  0.32804217705E+002  0.70553560782E-009  0.83085863659E-007 -0.80110404363E-007 -0.12882134478E-011  0.85505093629E-007 -0.85505093629E-007  0.10026524877E-020 -0.10026525113E-020
                    0.93414398785E-001  0.00000000000E+000 -0.13500000000E+002  0.46215313607E+002  0.81855680780E-009  0.10325104930E-006 -0.12927474146E-006 -0.20814780800E-011  0.10671202800E-006 -0.10671202800E-006  0.10453870587E-019 -0.10453870960E-019
                    0.93414398785E-001  0.00000000000E+000 -0.18500000000E+002  0.45515963574E+002  0.67039828425E-009  0.81571124458E-007 -0.10520582426E-006 -0.16937878911E-011  0.84717451817E-007 -0.84717451817E-007  0.33817639441E-018 -0.33817639592E-018
                    0.93414398785E-001  0.00000000000E+000 -0.23500000000E+002  0.55674756199E+002  0.39909176743E-009  0.48938542443E-007 -0.74816047206E-007 -0.12050771499E-011  0.52128135778E-007 -0.52128135778E-007  0.83142423254E-017 -0.83142424421E-017
                    0.93414398785E-001  0.00000000000E+000 -0.28500000000E+002  0.54482920097E+002  0.18503084809E-009  0.21851212769E-007 -0.61395633622E-007 -0.98874940013E-012  0.24252476108E-007 -0.24252476108E-007  0.33311124241E-016 -0.33311125967E-016
                    0.93414398785E-001  0.00000000000E+000 -0.33500000000E+002  0.66541767459E+002 -0.48052860459E-013 -0.62334469853E-011 -0.49518357634E-006 -0.87791493027E-011  0.14262682579E-011 -0.14262682579E-011  0.46021905387E-015 -0.46021904500E-015
                    0.93414398785E-001  0.00000000000E+000 -0.38500000000E+002  0.66474815398E+002  0.00000000000E+000  0.00000000000E+000 -0.39699238984E-006 -0.10111633313E-010  0.00000000000E+000 -0.00000000000E+000  0.28367622217E-015 -0.28367620488E-015
                    0.93414398785E-001  0.00000000000E+000 -0.42250000000E+002  0.32988979253E+002  0.00000000000E+000  0.00000000000E+000 -0.16248870588E-006 -0.50982856001E-011  0.00000000000E+000 -0.00000000000E+000  0.90851680056E-016 -0.90851660372E-016
                    0.93414398785E-001  0.00000000000E+000 -0.44250000000E+002  0.19802139975E+002  0.00000000000E+000  0.00000000000E+000 -0.85721842115E-007 -0.29609674881E-011  0.00000000000E+000 -0.00000000000E+000  0.30093550277E-016 -0.30093550381E-016
                    0.93414398785E-001  0.00000000000E+000 -0.45500000000E+002  0.13194970801E+002  0.00000000000E+000  0.00000000000E+000 -0.53231911253E-007 -0.19444182185E-011  0.00000000000E+000 -0.00000000000E+000  0.11457968312E-016 -0.11457961005E-016
                    0.93414398785E-001  0.00000000000E+000 -0.46500000000E+002  0.13187661973E+002  0.00000000000E+000  0.00000000000E+000 -0.51090398275E-007 -0.19476394202E-011  0.00000000000E+000 -0.00000000000E+000  0.66020908802E-017 -0.66020987930E-017
                    0.93414398785E-001  0.00000000000E+000 -0.47500000000E+002  0.13200813331E+002  0.00000000000E+000  0.00000000000E+000 -0.49372690499E-007 -0.19610377320E-011  0.00000000000E+000 -0.00000000000E+000  0.24779347700E-017 -0.24779321491E-017
                    0.93414398785E-001  0.00000000000E+000 -0.48500000000E+002  0.13188409286E+002  0.00000000000E+000  0.00000000000E+000 -0.47824739255E-007 -0.19760888057E-011  0.00000000000E+000 -0.00000000000E+000 -0.13534278309E-017  0.13534216695E-017
                    0.93414398785E-001  0.00000000000E+000 -0.49500000000E+002  0.13192724225E+002  0.00000000000E+000  0.00000000000E+000 -0.45224871494E-007 -0.19411101978E-011  0.00000000000E+000 -0.00000000000E+000 -0.53545726092E-017  0.53545719704E-017
                    0.93414398785E-001  0.00000000000E+000 -0.50500000000E+002  0.13155076977E+002  0.00000000000E+000  0.00000000000E+000 -0.21250666528E-007 -0.94320595525E-012  0.00000000000E+000 -0.00000000000E+000 -0.19564846417E-015  0.19564846467E-015
                    0.93414398785E-001  0.00000000000E+000 -0.51500000000E+002  0.13177822137E+002  0.00000000000E+000  0.00000000000E+000 -0.19294938820E-007 -0.77579133680E-012  0.00000000000E+000  0.00000000000E+000  0.27252480561E-015 -0.27252480168E-015
                    0.93414398785E-001  0.00000000000E+000 -0.52500000000E+002  0.13171426658E+002  0.00000000000E+000  0.00000000000E+000 -0.19252452147E-007 -0.72034064159E-012  0.00000000000E+000  0.00000000000E+000  0.76313451070E-015 -0.76313451953E-015
                    0.93414398785E-001  0.00000000000E+000 -0.53500000000E+002  0.13172951641E+002  0.00000000000E+000  0.00000000000E+000 -0.19282123846E-007 -0.60797338975E-012  0.00000000000E+000  0.00000000000E+000  0.90461586296E-015 -0.90461586424E-015
                    0.93414398785E-001  0.00000000000E+000 -0.54500000000E+002  0.13171323362E+002  0.00000000000E+000  0.00000000000E+000 -0.19304346785E-007 -0.47065690736E-012  0.00000000000E+000  0.00000000000E+000  0.70926021675E-015 -0.70926022343E-015
                    0.93414398785E-001  0.00000000000E+000 -0.55500000000E+002  0.13176228976E+002  0.00000000000E+000  0.00000000000E+000 -0.19349209028E-007 -0.35265219019E-012  0.00000000000E+000  0.00000000000E+000  0.42249271233E-015 -0.42249270894E-015
                    0.93414398785E-001  0.00000000000E+000 -0.56500000000E+002  0.13171734211E+002  0.00000000000E+000  0.00000000000E+000 -0.19363040267E-007 -0.27252753654E-012  0.00000000000E+000  0.00000000000E+000  0.20877054853E-015 -0.20877054932E-015
                    0.93414398785E-001  0.00000000000E+000 -0.57750000000E+002  0.19761903289E+002  0.00000000000E+000  0.00000000000E+000 -0.29112854402E-007 -0.33091113312E-012  0.00000000000E+000  0.00000000000E+000  0.99087565391E-016 -0.99087566324E-016
                    0.93414398785E-001  0.00000000000E+000 -0.59750000000E+002  0.32937522728E+002  0.00000000000E+000  0.00000000000E+000 -0.48732388708E-007 -0.50024210582E-012  0.00000000000E+000  0.00000000000E+000  0.32454626969E-016 -0.32454620976E-016
                    0.93414398785E-001  0.00000000000E+000 -0.63500000000E+002  0.65232255968E+002  0.00000000000E+000  0.00000000000E+000 -0.97961273728E-007 -0.98196436396E-012  0.00000000000E+000  0.00000000000E+000  0.51521086452E-017 -0.51520719473E-017
                    0.93414398785E-001  0.00000000000E+000 -0.68500000000E+002  0.65222078275E+002  0.00000000000E+000  0.00000000000E+000 -0.98640605356E-007 -0.98659976765E-012  0.00000000000E+000  0.00000000000E+000  0.40091916654E-018 -0.40094479418E-018
                    0.93414398785E-001  0.00000000000E+000 -0.76000000000E+002  0.12975374598E+003  0.00000000000E+000  0.00000000000E+000 -0.19931306278E-006 -0.19931638147E-011  0.00000000000E+000  0.00000000000E+000  0.99463887293E-020 -0.99469882202E-020
                    0.93414398785E-001  0.00000000000E+000 -0.86000000000E+002  0.12962176836E+003  0.00000000000E+000  0.00000000000E+000 -0.20149063925E-006 -0.20149269178E-011  0.00000000000E+000  0.00000000000E+000 -0.73358136860E-020  0.73264850841E-020