Program Version,EnergyPlus, Version 9.1.0-08d2e308bb, YMD=2020.05.04 16:28
1,5,Environment Title[],Latitude[deg],Longitude[deg],Time Zone[],Elevation[m]
2,8,Day of Simulation[],Month[],Day of Month[],DST Indicator[1=yes 0=no],Hour[],StartMinute[],EndMinute[],DayType
3,5,Cumulative Day of Simulation[],Month[],Day of Month[],DST Indicator[1=yes 0=no],DayType  ! When Daily Meters Requested
4,2,Cumulative Days of Simulation[],Month[]  ! When Monthly Meters Requested
5,1,Cumulative Days of Simulation[] ! When Run Period Meters Requested
6,1,Calendar Year of Simulation[] ! When Annual Meters Requested
9,1,Electricity:Facility [J] !Hourly
1059,1,ElectricitySurplusSold:Facility [J] !Hourly
1340,1,Electricity:Plant [J] !Hourly
1157,1,Electricity:HVAC [J] !Hourly
21,1,Electricity:Building [J] !Hourly
1008,1,Cogeneration:Gas [J] !Hourly
957,1,ElectricityProduced:Facility [J] !Hourly
End of Data Dictionary
1,NEWARK ANN HTG 99.6% CONDNS DB,  41.98, -87.92,  -6.00, 201.00
2,1, 1,21, 0, 1, 0.00,60.00,WinterDesignDay
9,16654595.339283342
21,9990847.998000002
957,11610701.283869256
1008,42161553.02973699
1059,0.0
1157,1716056.7829386383
1340,257273.59834470103
2,1, 1,21, 0, 2, 0.00,60.00,WinterDesignDay
9,16726701.95370746
21,9990847.998000002
957,19530518.573815537
1008,76932003.1742151
1059,5817851.805778701
1157,1665221.2554097628
1340,380215.74029770385
2,1, 1,21, 0, 3, 0.00,60.00,WinterDesignDay
9,16584369.11769381
21,9990847.998000002
957,22576706.03896065
1008,88575442.61882533
1059,8062447.017519728
1157,1477954.1280570375
1340,425150.0316367674
2,1, 1,21, 0, 4, 0.00,60.00,WinterDesignDay
9,16535838.86950322
21,9990847.998000002
957,23883538.154539035
1008,94369024.60331965
1059,9051314.141517196
1157,1412843.2439443714
1340,441730.6675588507
2,1, 1,21, 0, 5, 0.00,60.00,WinterDesignDay
9,16528968.559367918
21,9990847.998000002
957,26849194.719790885
1008,105689499.08860994
1059,11283536.873300584
1157,1372763.3628780323
1340,474940.2384898904
2,1, 1,21, 0, 6, 0.00,60.00,WinterDesignDay
9,16521378.676150985
21,9990847.998000002
957,24509994.936258187
1008,96831053.63344328
1059,9604345.49592003
1157,1402529.8885403013
1340,437583.8296106856
2,1, 1,21, 0, 7, 0.00,60.00,WinterDesignDay
9,16530798.889950924
21,9990847.998000002
957,23548872.32281286
1008,92888581.95175006
1059,8795073.270689907
1157,1411950.0658620755
1340,437583.8660888427
2,1, 1,21, 0, 8, 0.00,60.00,WinterDesignDay
9,16365715.246246893
21,9990847.998000002
957,26851028.710690854
1008,105697756.24506302
1059,11400558.160950158
1157,1372840.7807814086
1340,474940.22346548459
2,1, 1,21, 0, 9, 0.00,60.00,WinterDesignDay
9,16282449.25912021
21,9990847.998000002
957,24840036.92695916
1008,98290155.1564888
1059,10010825.968490219
1157,1398474.145215665
1340,441730.7159045466
2,1, 1,21, 0,10, 0.00,60.00,WinterDesignDay
9,16281850.285048977
21,9990847.998000002
957,23882228.73019432
1008,94355904.21919009
1059,9199769.05177425
1157,1397875.211330829
1340,441730.6757181446
2,1, 1,21, 0,11, 0.00,60.00,WinterDesignDay
9,16276762.089205964
21,9990847.998000002
957,25529994.541555443
1008,100168299.03397344
1059,10469766.378667782
1157,1376186.9834222249
1340,458330.70778373788
2,1, 1,21, 0,12, 0.00,60.00,WinterDesignDay
9,16276836.453761328
21,9990847.998000002
957,25502910.038555918
1008,100908100.88664568
1059,10522266.402909598
1157,1384545.7526292182
1340,450046.3031321057
2,1, 1,21, 0,13, 0.00,60.00,WinterDesignDay
9,17111866.04006083
21,9990847.998000002
957,26233895.65282018
1008,104659861.7759083
1059,10305051.445635559
1157,2194687.0183360294
1340,474934.6237248082
2,1, 1,21, 0,14, 0.00,60.00,WinterDesignDay
9,16337220.302221273
21,9990847.998000002
957,27489325.184697484
1008,109900462.94977685
1059,12002020.844482841
1157,1411738.0728776109
1340,483237.83134366487
2,1, 1,21, 0,15, 0.00,60.00,WinterDesignDay
9,16310738.06414285
21,9990847.998000002
957,23882441.69993186
1008,94357214.76964316
1059,9194092.224292689
1157,1426762.9462552306
1340,441730.719887622
2,1, 1,21, 0,16, 0.00,60.00,WinterDesignDay
9,16276603.678707503
21,9990847.998000002
957,24871743.286424925
1008,97570425.24861922
1059,9964324.688241173
1157,1384333.5234479616
1340,450025.7572595388
2,1, 1,21, 0,17, 0.00,60.00,WinterDesignDay
9,16352563.075273736
21,9990847.998000002
957,26821371.646925775
1008,106429722.86184626
1059,11470104.44832334
1157,1387902.089761137
1340,466645.1235125963
2,1, 1,21, 0,18, 0.00,60.00,WinterDesignDay
9,16527624.46033277
21,9990847.998000002
957,23883715.2893169
1008,94364840.70823515
1059,9046234.571274128
1157,1404628.8537862569
1340,441730.64854651087
2,1, 1,21, 0,19, 0.00,60.00,WinterDesignDay
9,16519640.618966524
21,9990847.998000002
957,23881135.110364327
1008,94351981.25338814
1059,9045456.809294636
1157,1396644.9580775793
1340,441730.70288894788
2,1, 1,21, 0,20, 0.00,60.00,WinterDesignDay
9,16526849.306086537
21,9990847.998000002
957,27175458.711970565
1008,106925418.0605705
1059,11530308.264199149
1157,1374791.073736628
1340,470793.2743499139
2,1, 1,21, 0,21, 0.00,60.00,WinterDesignDay
9,16516372.463297813
21,9990847.998000002
957,23854602.571490945
1008,94140302.67937228
1059,9102580.641579129
1157,1397523.665443541
1340,437583.83985426687
2,1, 1,21, 0,22, 0.00,60.00,WinterDesignDay
9,16507714.698545808
21,9990847.998000002
957,23881452.883826645
1008,93401501.05795059
1059,9052774.949537462
1157,1388865.992721131
1340,437583.74782468218
2,1, 1,21, 0,23, 0.00,60.00,WinterDesignDay
9,16528701.602259107
21,9990847.998000002
957,27149521.495858086
1008,107668743.92504296
1059,11586873.855837087
1157,1376643.316815847
1340,470793.32744325898
2,1, 1,21, 0,24, 0.00,60.00,WinterDesignDay
9,16512499.579294825
21,9990847.998000002
957,23551669.20964421
1008,92895501.66748543
1059,8802170.28031381
1157,1393650.869890409
1340,437583.7514044177
1,NEWARK ANN CLG .4% CONDNS DB=>MWB,  41.98, -87.92,  -6.00, 201.00
2,1, 7,21, 0, 1, 0.00,60.00,SummerDesignDay
9,61389099.6081971
21,9990847.998000002
957,12822904.598874664
1008,50393909.56205046
1059,0.0
1157,46389987.08678757
1340,317847.5634095255
2,1, 7,21, 0, 2, 0.00,60.00,SummerDesignDay
9,60509622.61764086
21,9990847.998000002
957,17442161.08949081
1008,76948794.41893998
1059,0.0
1157,45370070.6488779
1340,458287.0107629609
2,1, 7,21, 0, 3, 0.00,60.00,SummerDesignDay
9,59510453.25401216
21,9990847.998000002
957,17959294.27868863
1008,80427466.03134185
1059,0.0
1157,44354276.61165318
1340,474911.6843589742
2,1, 7,21, 0, 4, 0.00,60.00,SummerDesignDay
9,58541382.759040977
21,9990847.998000002
957,16553323.129540835
1008,73298866.14469557
1059,0.0
1157,43435074.57323831
1340,425043.2278026459
2,1, 7,21, 0, 5, 0.00,60.00,SummerDesignDay
9,57639147.84250507
21,9990847.998000002
957,15542511.71829205
1008,66318313.24779574
1059,0.0
1157,42653707.56751066
1340,391816.18899439289
2,1, 7,21, 0, 6, 0.00,60.00,SummerDesignDay
9,59378006.87296395
21,9990847.998000002
957,15738081.092158651
1008,68146080.05277133
1059,0.0
1157,44535629.10920025
1340,400133.3657637173
2,1, 7,21, 0, 7, 0.00,60.00,SummerDesignDay
9,64159976.07983253
21,9990847.998000002
957,15087857.989130065
1008,63913188.55204949
1059,0.0
1157,49338367.10119663
1340,379364.58063589819
2,1, 7,21, 0, 8, 0.00,60.00,SummerDesignDay
9,69246477.77460125
21,9990847.998000002
957,15060719.999639314
1008,64968416.21547582
1059,0.0
1157,54420707.00561629
1340,383526.3709849355
2,1, 7,21, 0, 9, 0.00,60.00,SummerDesignDay
9,74406076.2078829
21,9990847.998000002
957,15579569.01571392
1008,65794322.14704091
1059,0.0
1157,59576152.180049408
1340,387679.6298334617
2,1, 7,21, 0,10, 0.00,60.00,SummerDesignDay
9,78863855.84846005
21,9990847.998000002
957,15114669.06520508
1008,63876182.94839812
1059,0.0
1157,64033931.801674518
1340,387679.64878555448
2,1, 7,21, 0,11, 0.00,60.00,SummerDesignDay
9,82271576.92234625
21,9990847.998000002
957,15033240.139151175
1008,63450382.83222953
1059,0.0
1157,67449961.01038692
1340,379371.5139593529
2,1, 7,21, 0,12, 0.00,60.00,SummerDesignDay
9,85047790.61692699
21,9990847.998000002
957,15049610.043962622
1008,63602696.99288065
1059,0.0
1157,70226175.99223902
1340,379370.2266880328
2,1, 7,21, 0,13, 0.00,60.00,SummerDesignDay
9,84806743.9965399
21,9990847.998000002
957,15034974.14056115
1008,63453888.337487678
1059,0.0
1157,69985124.32323106
1340,379375.27530886288
2,1, 7,21, 0,14, 0.00,60.00,SummerDesignDay
9,91531309.52634149
21,9990847.998000002
957,15050333.237800276
1008,64792917.413992378
1059,0.0
1157,76705537.15078211
1340,383527.977559401
2,1, 7,21, 0,15, 0.00,60.00,SummerDesignDay
9,93764319.89923986
21,9990847.998000002
957,15556753.04531119
1008,65686058.61765924
1059,0.0
1157,78934395.4894194
1340,387680.0118204352
2,1, 7,21, 0,16, 0.00,60.00,SummerDesignDay
9,94923135.01673445
21,9990847.998000002
957,15087398.3151672
1008,63650209.578449297
1059,0.0
1157,80097362.54065539
1340,383528.0780790798
2,1, 7,21, 0,17, 0.00,60.00,SummerDesignDay
9,94737474.31062287
21,9990847.998000002
957,15036712.260061823
1008,63466481.998067948
1059,0.0
1157,79911701.70345585
1340,383528.2091670169
2,1, 7,21, 0,18, 0.00,60.00,SummerDesignDay
9,92110040.2786947
21,9990847.998000002
957,15053992.904388264
1008,63625733.166974168
1059,0.0
1157,77288427.83312094
1340,379368.047573747
2,1, 7,21, 0,19, 0.00,60.00,SummerDesignDay
9,84618496.23444507
21,9990847.998000002
957,15027350.796309783
1008,63410149.816421169
1059,0.0
1157,69796877.76251857
1340,379374.0739264651
2,1, 7,21, 0,20, 0.00,60.00,SummerDesignDay
9,75200952.58213115
21,9990847.998000002
957,15036631.898479846
1008,63465976.003638889
1059,0.0
1157,60208034.940866108
1340,379375.1752650202
2,1, 7,21, 0,21, 0.00,60.00,SummerDesignDay
9,70854484.53711012
21,9990847.998000002
957,15053324.816051672
1008,64809444.243976969
1059,0.0
1157,55789691.78316259
1340,383527.7959475307
2,1, 7,21, 0,22, 0.00,60.00,SummerDesignDay
9,67847891.88041112
21,9990847.998000002
957,15356245.628780283
1008,64758771.054923858
1059,0.0
1157,52783098.41275349
1340,383528.50965762379
2,1, 7,21, 0,23, 0.00,60.00,SummerDesignDay
9,65457750.01600385
21,9990847.998000002
957,15220061.527995492
1008,64221860.22510004
1059,0.0
1157,50392956.91636384
1340,383528.1416399913
2,1, 7,21, 0,24, 0.00,60.00,SummerDesignDay
9,63495280.347525309
21,9990847.998000002
957,15104831.530860868
1008,63829902.87144893
1059,0.0
1157,48426335.8859823
1340,387679.50354302019
End of Data
 Number of Records Written=         336
