Program Version,EnergyPlus, Version 9.1.0-08d2e308bb, YMD=2020.05.04 16:28
1,5,Environment Title[],Latitude[deg],Longitude[deg],Time Zone[],Elevation[m]
2,8,Day of Simulation[],Month[],Day of Month[],DST Indicator[1=yes 0=no],Hour[],StartMinute[],EndMinute[],DayType
3,5,Cumulative Day of Simulation[],Month[],Day of Month[],DST Indicator[1=yes 0=no],DayType  ! When Daily Report Variables Requested
4,2,Cumulative Days of Simulation[],Month[]  ! When Monthly Report Variables Requested
5,1,Cumulative Days of Simulation[] ! When Run Period Report Variables Requested
6,1,Calendar Year of Simulation[] ! When Annual Report Variables Requested
631,1,ZN_1_FLR_1_SEC_1,Zone Mean Air Temperature [C] !TimeStep
632,1,ZN_1_FLR_1_SEC_2,Zone Mean Air Temperature [C] !TimeStep
633,1,ZN_1_FLR_1_SEC_3,Zone Mean Air Temperature [C] !TimeStep
634,1,ZN_1_FLR_1_SEC_4,Zone Mean Air Temperature [C] !TimeStep
635,1,ZN_1_FLR_1_SEC_5,Zone Mean Air Temperature [C] !TimeStep
954,1,FCT SOFC,Generator Produced Electric Power [W] !TimeStep
955,1,FCT SOFC,Generator Produced Electric Energy [J] !TimeStep
992,1,FCT SOFC,Generator Produced Thermal Rate [W] !TimeStep
993,1,FCT SOFC,Generator Produced Thermal Energy [J] !TimeStep
1019,1,FCT SOFC,Generator Zone Sensible Heat Transfer Rate [W] !TimeStep
1131,1,MICROCOGEN1,Generator Off Mode Time [s] !TimeStep
1132,1,MICROCOGEN1,Generator Standby Mode Time [s] !TimeStep
1133,1,MICROCOGEN1,Generator Warm Up Mode Time [s] !TimeStep
1134,1,MICROCOGEN1,Generator Normal Operating Mode Time [s] !TimeStep
1135,1,MICROCOGEN1,Generator Cool Down Mode Time [s] !TimeStep
1136,1,MICROCOGEN1,Generator Produced Electric Power [W] !TimeStep
1137,1,MICROCOGEN1,Generator Produced Electric Energy [J] !TimeStep
1138,1,MICROCOGEN1,Generator Produced Thermal Rate [W] !TimeStep
1139,1,MICROCOGEN1,Generator Produced Thermal Energy [J] !TimeStep
1140,1,MICROCOGEN1,Generator Electric Efficiency [] !TimeStep
1141,1,MICROCOGEN1,Generator Thermal Efficiency [] !TimeStep
1142,1,MICROCOGEN1,Generator Gross Input Heat Rate [W] !TimeStep
1143,1,MICROCOGEN1,Generator Steady State Engine Heat Generation Rate [W] !TimeStep
1144,1,MICROCOGEN1,Generator Engine Heat Exchange Rate [W] !TimeStep
1145,1,MICROCOGEN1,Generator Air Mass Flow Rate [kg/s] !TimeStep
1146,1,MICROCOGEN1,Generator Fuel Mass Flow Rate [kg/s] !TimeStep
1147,1,MICROCOGEN1,Generator Engine Temperature [C] !TimeStep
1148,1,MICROCOGEN1,Generator Coolant Inlet Temperature [C] !TimeStep
1149,1,MICROCOGEN1,Generator Coolant Outlet Temperature [C] !TimeStep
1151,1,MICROCOGEN1,Generator Zone Sensible Heat Transfer Rate [W] !TimeStep
1152,1,MYTHICAL WIND TURBINE,Generator Produced Electric Power [W] !TimeStep
1153,1,MYTHICAL WIND TURBINE,Generator Produced Electric Energy [J] !TimeStep
1383,1,MICROCHP SENERTECH PUMP-MICROCOGEN1NODE,System Node Temperature [C] !TimeStep
1384,1,MICROCHP SENERTECH PUMP-MICROCOGEN1NODE,System Node Mass Flow Rate [kg/s] !TimeStep
1385,1,MICROCHP SENERTECH SUPPLY EQUIPMENT OUTLET NODE,System Node Temperature [C] !TimeStep
1386,1,MICROCHP SENERTECH SUPPLY EQUIPMENT OUTLET NODE,System Node Mass Flow Rate [kg/s] !TimeStep
9,1,Electricity:Facility [J] !Hourly
1059,1,ElectricitySurplusSold:Facility [J] !Hourly
1340,1,Electricity:Plant [J] !Hourly
1157,1,Electricity:HVAC [J] !Hourly
21,1,Electricity:Building [J] !Hourly
1008,1,Cogeneration:Gas [J] !Hourly
957,1,ElectricityProduced:Facility [J] !Hourly
End of Data Dictionary
1,NEWARK ANN HTG 99.6% CONDNS DB,  41.98, -87.92,  -6.00, 201.00
2,1, 1,21, 0, 1, 0.00, 1.00,WinterDesignDay
631,21.06895465640077
632,21.0004227434899
633,21.000329043739066
634,21.000480503981846
635,32.09208380139981
954,2769.194801074791
955,166151.68806448746
992,4044.3169298104637
993,242659.0157886278
1019,958.8051989252092
1131,0.0
1132,60.0
1133,0.0
1134,0.0
1135,0.0
1136,0.0
1137,0.0
1138,0.0
1139,0.0
1140,0.0
1141,0.0
1142,0.0
1143,0.0
1144,0.0
1145,0.0
1146,0.0
1147,67.77500557160968
1148,72.03350946564301
1149,67.77500557160968
1151,651.396345562993
1152,456.0
1153,27360.0
1383,72.0334449639023
1384,0.0
1385,67.77500557160968
1386,0.0
2,1, 1,21, 0, 1, 1.00, 2.00,WinterDesignDay
631,21.05181385533198
632,21.000415845370715
633,21.000323301312933
634,21.000471822485357
635,32.09217764052533
954,2769.194801074791
955,166151.68806448746
992,4037.0305273475466
993,242221.8316408528
1019,958.8051989252092
1131,0.0
1132,60.0
1133,0.0
1134,0.0
1135,0.0
1136,0.0
1137,0.0
1138,0.0
1139,0.0
1140,0.0
1141,0.0
1142,0.0
1143,0.0
1144,0.0
1145,0.0
1146,0.0
1147,66.91132322444789
1148,72.52112089118339
1149,66.91132322444789
1151,639.622133593958
1152,456.0
1153,27360.0
1383,72.52105502693033
1384,0.0
1385,66.91132322444789
1386,0.0
2,1, 1,21, 0, 1, 2.00, 3.00,WinterDesignDay
631,21.035356465263374
632,21.00040949806345
633,21.000317950563934
634,21.000502387418086
635,32.0922686869896
954,2769.194801074791
955,166151.68806448746
992,4029.735719863457
993,241784.14319180739
1019,958.8051989252092
1131,0.0
1132,60.0
1133,0.0
1134,0.0
1135,0.0
1136,0.0
1137,0.0
1138,0.0
1139,0.0
1140,0.0
1141,0.0
1142,0.0
1143,0.0
1144,0.0
1145,0.0
1146,0.0
1147,66.06329501577935
1148,73.0092966191911
1149,66.06329501577935
1151,628.0404493822455
1152,456.0
1153,27360.0
1383,73.00923023370864
1384,0.0
1385,66.06329501577935
1386,0.0
2,1, 1,21, 0, 1, 3.00, 4.00,WinterDesignDay
631,21.01935760325324
632,21.000403755324954
633,21.00033550585389
634,21.00049842563487
635,32.09235208590155
954,2769.194801074791
955,166151.68806448746
992,4022.4447183649738
993,241346.68310189845
1019,958.8051989252092
1131,0.0
1132,60.0
1133,0.0
1134,0.0
1135,0.0
1136,0.0
1137,0.0
1138,0.0
1139,0.0
1140,0.0
1141,0.0
1142,0.0
1143,0.0
1144,0.0
1145,0.0
1146,0.0
1147,65.23064410881726
1148,73.49721515357169
1149,65.23064410881726
1151,616.6572918981289
1152,456.0
1153,27360.0
1383,73.49714862072469
1384,0.0
1385,65.23064410881726
1386,0.0
2,1, 1,21, 0, 1, 4.00, 5.00,WinterDesignDay
631,21.003678362793143
632,21.00039861896463
633,21.0003328659459
634,21.000494745916098
635,32.09242399328853
954,2769.194801074791
955,166151.68806448746
992,4015.1629059550466
993,240909.77435730276
1019,958.8051989252092
1131,0.0
1132,60.0
1133,0.0
1134,0.0
1135,0.0
1136,0.0
1137,0.0
1138,0.0
1139,0.0
1140,0.0
1141,0.0
1142,0.0
1143,0.0
1144,0.0
1145,0.0
1146,0.0
1147,64.4130946274987
1148,73.98451219634046
1149,64.4130946274987
1151,605.4754407166881
1152,456.0
1153,27360.0
1383,73.9844456821467
1384,0.0
1385,64.4130946274987
1386,0.0
2,1, 1,21, 0, 1, 5.00, 6.00,WinterDesignDay
631,21.00014110628136
632,21.000428363161658
633,21.000330175450356
634,21.000490828080957
635,32.09248115120547
954,2769.194801074791
955,166151.68806448746
992,4007.892640159487
993,240473.55840956924
1019,958.8051989252092
1131,0.0
1132,60.0
1133,0.0
1134,0.0
1135,0.0
1136,0.0
1137,0.0
1138,0.0
1139,0.0
1140,0.0
1141,0.0
1142,0.0
1143,0.0
1144,5.265121671982342e-12
1145,0.0
1146,0.0
1147,63.61037322858429
1148,74.47102677207734
1149,63.61037322858428
1151,594.4941972321627
1152,456.0
1153,27360.0
1383,74.47096035013242
1384,0.0
1385,63.61037322858428
1386,0.0
2,1, 1,21, 0, 1, 6.00, 7.00,WinterDesignDay
631,21.000057839419634
632,21.000425668617927
633,21.000327346787569
634,21.00048705938341
635,32.09252088808989
954,2769.194801074791
955,166151.68806448746
992,4000.6349348704154
993,240038.0960922249
1019,958.8051989252092
1131,0.0
1132,60.0
1133,0.0
1134,0.0
1135,0.0
1136,0.0
1137,0.0
1138,0.0
1139,0.0
1140,0.0
1141,0.0
1142,0.0
1143,0.0
1144,5.265121671982342e-12
1145,0.0
1146,0.0
1147,62.82243024108338
1148,74.95668832289643
1149,62.822430241083377
1151,583.7117196613386
1152,456.0
1153,27360.0
1383,74.95662202570023
1384,0.0
1385,62.822430241083377
1386,0.0
2,1, 1,21, 0, 1, 7.00, 8.00,WinterDesignDay
631,21.000074649458005
632,21.00042315090171
633,21.00032490959324
634,21.00048383347251
635,32.09254120923752
954,2769.194801074791
955,166151.68806448746
992,3993.3902098352066
993,239603.4125901124
1019,958.8051989252092
1131,0.0
1132,60.0
1133,0.0
1134,0.0
1135,0.0
1136,0.0
1137,0.0
1138,0.0
1139,0.0
1140,0.0
1141,0.0
1142,0.0
1143,0.0
1144,5.265121671982342e-12
1145,0.0
1146,0.0
1147,62.04905625523049
1148,75.44146655677054
1149,62.04905625523048
1151,572.9653611467876
1152,456.0
1153,27360.0
1383,75.4414003992467
1384,0.0
1385,62.04905625523048
1386,0.0
2,1, 1,21, 0, 1, 8.00, 9.00,WinterDesignDay
631,21.000090412828894
632,21.000420806037647
633,21.000322796445457
634,21.000481091709959
635,32.09254069114561
954,2769.194801074791
955,166151.68806448746
992,3986.158626568841
993,239169.51759413049
1019,958.8051989252092
1131,0.0
1132,60.0
1133,0.0
1134,0.0
1135,0.0
1136,0.0
1137,0.0
1138,0.0
1139,0.0
1140,0.0
1141,0.0
1142,0.0
1143,0.0
1144,5.265121671982342e-12
1145,0.0
1146,0.0
1147,61.28998371351128
1148,75.9253490444085
1149,61.289983713511279
1151,562.3712782966087
1152,456.0
1153,27360.0
1383,75.9252830319436
1384,0.0
1385,61.289983713511279
1386,0.0
2,1, 1,21, 0, 1, 9.00,10.00,WinterDesignDay
631,21.00009962553375
632,21.000418857889739
633,21.000320980969084
634,21.000478785605055
635,32.092518439689289
954,2769.194801074791
955,166151.68806448746
992,3978.940236094815
993,238736.4141656889
1019,958.8051989252092
1131,0.0
1132,60.0
1133,0.0
1134,0.0
1135,0.0
1136,0.0
1137,0.0
1138,0.0
1139,0.0
1140,0.0
1141,0.0
1142,0.0
1143,0.0
1144,0.0
1145,0.0
1146,0.0
1147,60.54494813608677
1148,76.40833124065968
1149,60.54494813608677
1151,551.9717541775299
1152,456.0
1153,27360.0
1383,76.40826537574869
1384,0.0
1385,60.54494813608677
1386,0.0
2,1, 1,21, 0, 1,10.00,11.00,WinterDesignDay
631,21.000114509439059
632,21.0004172325606
633,21.00031943305995
634,21.000476869379914
635,32.09247393150736
954,2769.194801074791
955,166151.68806448746
992,3971.735043358799
993,238304.10260152794
1019,958.8051989252092
1131,0.0
1132,60.0
1133,0.0
1134,0.0
1135,0.0
1136,0.0
1137,0.0
1138,0.0
1139,0.0
1140,0.0
1141,0.0
1142,0.0
1143,0.0
1144,5.265121671982342e-12
1145,0.0
1146,0.0
1147,59.81368983206624
1148,76.89041213588318
1149,59.81368983206623
1151,541.7645508086329
1152,456.0
1153,27360.0
1383,76.89034641941875
1384,0.0
1385,59.81368983206623
1386,0.0
2,1, 1,21, 0, 1,11.00,12.00,WinterDesignDay
631,21.000122258188104
632,21.00041589452185
633,21.000338708206415
634,21.000475298599178
635,32.09240722525633
954,2769.194801074791
955,166151.68806448746
992,3964.543034526453
993,237872.58207158716
1019,958.8051989252092
1131,0.0
1132,60.0
1133,0.0
1134,0.0
1135,0.0
1136,0.0
1137,0.0
1138,0.0
1139,0.0
1140,0.0
1141,0.0
1142,0.0
1143,0.0
1144,5.265121671982342e-12
1145,0.0
1146,0.0
1147,59.095954138735098
1148,77.37159229285399
1149,59.09595413873509
1151,531.7461858294951
1152,456.0
1153,27360.0
1383,77.37152672501378
1384,0.0
1385,59.09595413873509
1386,0.0
2,1, 1,21, 0, 1,12.00,13.00,WinterDesignDay
631,21.000136163570507
632,21.000414812324327
633,21.000338283812196
634,21.00047403562343
635,32.09231896322066
954,2769.194801074791
955,166151.68806448746
992,3957.364192690971
993,237441.85156145824
1019,958.8051989252092
1131,0.0
1132,60.0
1133,0.0
1134,0.0
1135,0.0
1136,0.0
1137,0.0
1138,0.0
1139,0.0
1140,0.0
1141,0.0
1142,0.0
1143,0.0
1144,5.265121671982342e-12
1145,0.0
1146,0.0
1147,58.39149086575567
1148,77.85187297091753
1149,58.391490865755667
1151,521.9130029213557
1152,456.0
1153,27360.0
1383,77.85180755156206
1384,0.0
1385,58.391490865755667
1386,0.0
2,1, 1,21, 0, 1,13.00,14.00,WinterDesignDay
631,21.000142786544214
632,21.000413964815924
633,21.000337982976008
634,21.000473054394637
635,32.09220962362501
954,2769.194801074791
955,166151.68806448746
992,3950.1985036555308
993,237011.91021933186
1019,958.8051989252092
1131,0.0
1132,60.0
1133,0.0
1134,0.0
1135,0.0
1136,0.0
1137,0.0
1138,0.0
1139,0.0
1140,0.0
1141,0.0
1142,0.0
1143,0.0
1144,5.265121671982342e-12
1145,0.0
1146,0.0
1147,57.70005469506828
1148,78.33125573693616
1149,57.700054695068278
1151,512.2617499236757
1152,456.0
1153,27360.0
1383,78.33119046578564
1384,0.0
1385,57.700054695068278
1386,0.0
2,1, 1,21, 0, 1,14.00,15.00,WinterDesignDay
631,21.000155967316706
632,21.00041332971055
633,21.000337635448714
634,21.000472327920798
635,32.09208000686035
954,2769.194801074791
955,166151.68806448746
992,3943.045949105561
993,236582.75694633364
1019,958.8051989252092
1131,0.0
1132,60.0
1133,0.0
1134,0.0
1135,0.0
1136,0.0
1137,0.0
1138,0.0
1139,0.0
1140,0.0
1141,0.0
1142,0.0
1143,0.0
1144,0.0
1145,0.0
1146,0.0
1147,57.02140459649051
1148,78.80974229258053
1149,57.02140459649051
1151,502.78888388151946
1152,456.0
1153,27360.0
1383,78.80967716929337
1384,0.0
1385,57.02140459649051
1386,0.0
2,1, 1,21, 0, 1,15.00,16.00,WinterDesignDay
631,21.000161436435673
632,21.00041289069052
633,21.000337424282379
634,21.000471836442018
635,32.09193137104903
954,2769.194801074791
955,166151.68806448746
992,3935.9065138458347
993,236154.39083075009
1019,958.8051989252092
1131,0.0
1132,60.0
1133,0.0
1134,0.0
1135,0.0
1136,0.0
1137,0.0
1138,0.0
1139,0.0
1140,0.0
1141,0.0
1142,0.0
1143,0.0
1144,1.0530243343964685e-11
1145,0.0
1146,0.0
1147,56.35530425287074
1148,79.28733439763879
1149,56.355304252870727
1151,493.4912867962642
1152,456.0
1153,27360.0
1383,79.28726942184643
1384,0.0
1385,56.355304252870727
1386,0.0
2,1, 1,21, 0, 1,16.00,17.00,WinterDesignDay
631,21.000174089917907
632,21.000412640068313
633,21.0003373145328
634,21.000508070793548
635,32.09176477446753
954,2769.194801074791
955,166151.68806448746
992,3928.7801879701326
993,235726.81127820794
1019,958.8051989252092
1131,0.0
1132,60.0
1133,0.0
1134,0.0
1135,0.0
1136,0.0
1137,0.0
1138,0.0
1139,0.0
1140,0.0
1141,0.0
1142,0.0
1143,0.0
1144,5.265121671982342e-12
1145,0.0
1146,0.0
1147,55.701521453135139
1148,79.76403383612323
1149,55.70152145313513
1151,484.3655315120903
1152,456.0
1153,27360.0
1383,79.76396900744553
1384,0.0
1385,55.70152145313513
1386,0.0
2,1, 1,21, 0, 1,17.00,18.00,WinterDesignDay
631,21.00017828051608
632,21.000412569185348
633,21.000337304109335
634,21.00050867657395
635,32.091581323920227
954,2769.194801074791
955,166151.68806448746
992,3921.6669578820385
993,235300.0174729223
1019,958.8051989252092
1131,0.0
1132,60.0
1133,0.0
1134,0.0
1135,0.0
1136,0.0
1137,0.0
1138,0.0
1139,0.0
1140,0.0
1141,0.0
1142,0.0
1143,0.0
1144,-5.265121671982342e-12
1145,0.0
1146,0.0
1147,55.05982855568273
1148,80.23984246610536
1149,55.059828555682738
1151,475.40863222878269
1152,456.0
1153,27360.0
1383,80.23977862680947
1384,0.0
1385,55.059828555682738
1386,0.0
2,1, 1,21, 0, 1,18.00,19.00,WinterDesignDay
631,21.000190598861047
632,21.00041267351143
633,21.000337390984723
634,21.00050924032541
635,32.091382269291838
954,2769.194801074791
955,166151.68806448746
992,3914.566754811442
993,234874.00528868653
1019,958.8051989252092
1131,0.0
1132,60.0
1133,0.0
1134,0.0
1135,0.0
1136,0.0
1137,0.0
1138,0.0
1139,0.0
1140,0.0
1141,0.0
1142,0.0
1143,0.0
1144,5.265121671982342e-12
1145,0.0
1146,0.0
1147,54.43000183908515
1148,80.71476587249336
1149,54.43000183908514
1151,466.61726618097807
1152,456.0
1153,27360.0
1383,80.71470299989065
1384,0.0
1385,54.43000183908514
1386,0.0
2,1, 1,21, 0, 1,19.00,20.00,WinterDesignDay
631,21.00019336289813
632,21.000412956564128
633,21.0003375750188
634,21.00050966108233
635,32.09116803338271
954,2769.194801074791
955,166151.68806448746
992,3907.479505748887
993,234448.7703449332
1019,958.8051989252092
1131,0.0
1132,60.0
1133,0.0
1134,0.0
1135,0.0
1136,0.0
1137,0.0
1138,0.0
1139,0.0
1140,0.0
1141,0.0
1142,0.0
1143,0.0
1144,0.0
1145,0.0
1146,0.0
1147,53.811822025734027
1148,81.18881003735373
1149,53.811822025734027
1151,457.9885827523962
1152,456.0
1153,27360.0
1383,81.18874730126383
1384,0.0
1385,53.811822025734027
1386,0.0
2,1, 1,21, 0, 1,20.00,21.00,WinterDesignDay
631,21.000205501530855
632,21.00041341564149
633,21.000337856711803
634,21.0005102483896
635,32.09093912804142
954,2769.194801074791
955,166151.68806448746
992,3900.405172846914
993,234024.31037081485
1019,958.8051989252092
1131,0.0
1132,60.0
1133,0.0
1134,0.0
1135,0.0
1136,0.0
1137,0.0
1138,0.0
1139,0.0
1140,0.0
1141,0.0
1142,0.0
1143,0.0
1144,0.0
1145,0.0
1146,0.0
1147,53.205073565900288
1148,81.66197789731184
1149,53.205073565900288
1151,449.51935054815979
1152,456.0
1153,27360.0
1383,81.66191529648306
1384,0.0
1385,53.205073565900288
1386,0.0
2,1, 1,21, 0, 1,21.00,22.00,WinterDesignDay
631,21.00020660121985
632,21.00041404998125
633,21.00033823674041
634,21.000510954922583
635,32.090696529860668
954,2769.194801074791
955,166151.68806448746
992,3893.343724065146
993,233600.62344390877
1019,958.8051989252092
1131,0.0
1132,60.0
1133,0.0
1134,0.0
1135,0.0
1136,0.0
1137,0.0
1138,0.0
1139,0.0
1140,0.0
1141,0.0
1142,0.0
1143,0.0
1144,0.0
1145,0.0
1146,0.0
1147,52.6095452458039
1148,82.13427207209068
1149,52.6095452458039
1151,441.2068587811295
1152,456.0
1153,27360.0
1383,82.13420960578535
1384,0.0
1385,52.6095452458039
1386,0.0
2,1, 1,21, 0, 1,22.00,23.00,WinterDesignDay
631,21.00021871657992
632,21.0004148630165
633,21.00033871540992
634,21.00051178461272
635,32.09044096982087
954,2769.194801074791
955,166151.68806448746
992,3886.2951406582385
993,233177.7084394943
1019,958.8051989252092
1131,0.0
1132,60.0
1133,0.0
1134,0.0
1135,0.0
1136,0.0
1137,0.0
1138,0.0
1139,0.0
1140,0.0
1141,0.0
1142,0.0
1143,0.0
1144,5.265121671982342e-12
1145,0.0
1146,0.0
1147,52.02502937991861
1148,82.60569467398232
1149,52.0250293799186
1151,433.04795449654076
1152,456.0
1153,27360.0
1383,82.60563234169044
1384,0.0
1385,52.0250293799186
1386,0.0
2,1, 1,21, 0, 1,23.00,24.00,WinterDesignDay
631,21.000230209643
632,21.000415851979989
633,21.000339291957585
634,21.00051273307764
635,32.09017320851399
954,2769.194801074791
955,166151.68806448746
992,3879.259404168971
993,232755.56425013825
1019,958.8051989252092
1131,0.0
1132,60.0
1133,0.0
1134,0.0
1135,0.0
1136,0.0
1137,0.0
1138,0.0
1139,0.0
1140,0.0
1141,0.0
1142,0.0
1143,0.0
1144,0.0
1145,0.0
1146,0.0
1147,51.45132253104355
1148,83.0762475882007
1149,51.45132253104355
1151,425.04007206817297
1152,456.0
1153,27360.0
1383,83.07618538951393
1384,0.0
1385,51.45132253104355
1386,0.0
2,1, 1,21, 0, 1,24.00,25.00,WinterDesignDay
631,21.00023011539182
632,21.00041701298387
633,21.000339964127645
634,21.000477604116897
635,32.089894154864527
954,2769.194801074791
955,166151.68806448746
992,3872.2364979823657
993,232334.18987894196
1019,958.8051989252092
1131,0.0
1132,60.0
1133,0.0
1134,0.0
1135,0.0
1136,0.0
1137,0.0
1138,0.0
1139,0.0
1140,0.0
1141,0.0
1142,0.0
1143,0.0
1144,0.0
1145,0.0
1146,0.0
1147,50.88822480870489
1148,83.54593259755032
1149,50.88822480870489
1151,417.18012225815178
1152,456.0
1153,27360.0
1383,83.54587053210577
1384,0.0
1385,50.88822480870489
1386,0.0
2,1, 1,21, 0, 1,25.00,26.00,WinterDesignDay
631,21.00024177279946
632,21.00041834506301
633,21.000340727882866
634,21.000478894830594
635,32.08960381973506
954,2769.194801074791
955,166151.68806448746
992,3865.2264079572385
993,231913.5844774343
1019,958.8051989252092
1131,0.0
1132,60.0
1133,0.0
1134,0.0
1135,0.0
1136,0.0
1137,0.0
1138,0.0
1139,0.0
1140,0.0
1141,0.0
1142,0.0
1143,0.0
1144,0.0
1145,0.0
1146,0.0
1147,50.33553981601429
1148,84.01475143787092
1149,50.33553981601429
1151,409.4655260071479
1152,456.0
1153,27360.0
1383,84.01468950532619
1384,0.0
1385,50.33553981601429
1386,0.0
2,1, 1,21, 0, 1,26.00,27.00,WinterDesignDay
631,21.0002528771985
632,21.0004198365102
633,21.000341576865396
634,21.000480452979767
635,32.08930233739846
954,2769.194801074791
955,166151.68806448746
992,3858.2291091744366
993,231493.74655046618
1019,958.8051989252092
1131,0.0
1132,60.0
1133,0.0
1134,0.0
1135,0.0
1136,0.0
1137,0.0
1138,0.0
1139,0.0
1140,0.0
1141,0.0
1142,0.0
1143,0.0
1144,0.0
1145,0.0
1146,0.0
1147,49.79307521941093
1148,84.48270582255265
1149,49.79307521941093
1151,401.8937428985278
1152,456.0
1153,27360.0
1383,84.48264402257498
1384,0.0
1385,49.79307521941093
1386,0.0
2,1, 1,21, 0, 1,27.00,28.00,WinterDesignDay
631,21.00025135779064
632,21.00042147347343
633,21.00034250238744
634,21.00048249052572
635,32.08899038722063
954,2769.194801074791
955,166151.68806448746
992,3851.2445784054286
993,231074.67470432574
1019,958.8051989252092
1131,0.0
1132,60.0
1133,0.0
1134,0.0
1135,0.0
1136,0.0
1137,0.0
1138,0.0
1139,0.0
1140,0.0
1141,0.0
1142,0.0
1143,0.0
1144,5.265121671982342e-12
1145,0.0
1146,0.0
1147,49.260642014405437
1148,84.94979745313118
1149,49.26064201440543
1151,394.46181821857717
1152,456.0
1153,27360.0
1383,84.94973578539237
1384,0.0
1385,49.26064201440543
1386,0.0
2,1, 1,21, 0, 1,28.00,29.00,WinterDesignDay
631,21.000262737504408
632,21.000423242788079
633,21.000343493623164
634,21.00048463158702
635,32.08866847943357
954,2769.194801074791
955,166151.68806448746
992,3844.272799953425
993,230656.3679972055
1019,958.8051989252092
1131,0.0
1132,60.0
1133,0.0
1134,0.0
1135,0.0
1136,0.0
1137,0.0
1138,0.0
1139,0.0
1140,0.0
1141,0.0
1142,0.0
1143,0.0
1144,5.265121671982342e-12
1145,0.0
1146,0.0
1147,48.73805446834369
1148,85.41602797385292
1149,48.738054468343687
1151,387.167331179735
1152,456.0
1153,27360.0
1383,85.4159635819784
1384,0.0
1385,48.738054468343687
1386,0.0
2,1, 1,21, 0, 1,29.00,30.00,WinterDesignDay
631,21.000273572278009
632,21.000425123486538
633,21.000344537461577
634,21.00048690397884
635,32.088337179640479
954,2769.194801074791
955,166151.68806448746
992,3837.3139377375348
993,230238.83626425209
1019,958.8051989252092
1131,0.0
1132,60.0
1133,0.0
1134,0.0
1135,0.0
1136,0.0
1137,0.0
1138,0.0
1139,0.0
1140,0.0
1141,0.0
1142,0.0
1143,0.0
1144,0.0
1145,0.0
1146,0.0
1147,48.2251307550829
1148,85.88138686880379
1149,48.2251307550829
1151,380.0079026145768
1152,456.0
1153,27360.0
1383,85.8813222797726
1384,0.0
1385,48.2251307550829
1386,0.0
2,1, 1,21, 0, 1,30.00,31.00,WinterDesignDay
631,21.00027035554699
632,21.000427092369394
633,21.000325770759717
634,21.000489276875379
635,32.087997206004697
954,2769.194801074791
955,166151.68806448746
992,3830.3680277576875
993,229822.08166546125
1019,958.8051989252092
1131,0.0
1132,60.0
1133,0.0
1134,0.0
1135,0.0
1136,0.0
1137,0.0
1138,0.0
1139,0.0
1140,0.0
1141,0.0
1142,0.0
1143,0.0
1144,0.0
1145,0.0
1146,0.0
1147,47.72169216218032
1148,86.34587222404568
1149,47.72169216218032
1151,372.98069184082535
1152,456.0
1153,27360.0
1383,86.34580778539145
1384,0.0
1385,47.72169216218032
1386,0.0
2,1, 1,21, 0, 1,31.00,32.00,WinterDesignDay
631,21.0002815615084
632,21.00042912855659
633,21.00032734251657
634,21.000491725289117
635,32.08764844751391
954,2769.194801074791
955,166151.68806448746
992,3823.4350883385525
993,229406.10530031313
1019,958.8051989252092
1131,0.0
1132,60.0
1133,0.0
1134,0.0
1135,0.0
1136,0.0
1137,0.0
1138,0.0
1139,0.0
1140,0.0
1141,0.0
1142,0.0
1143,0.0
1144,0.0
1145,0.0
1146,0.0
1147,47.22756303215921
1148,86.80948343025085
1149,47.22756303215921
1151,366.08343468166165
1152,456.0
1153,27360.0
1383,86.80941914281316
1384,0.0
1385,47.22756303215921
1386,0.0
2,1, 1,21, 0, 1,32.00,33.00,WinterDesignDay
631,21.00029220591955
632,21.000431202947387
633,21.000328914905049
634,21.000494213701118
635,32.087290918362558
954,2769.194801074791
955,166151.68806448746
992,3816.515109664919
993,228990.90657989513
1019,958.8051989252092
1131,0.0
1132,60.0
1133,0.0
1134,0.0
1135,0.0
1136,0.0
1137,0.0
1138,0.0
1139,0.0
1140,0.0
1141,0.0
1142,0.0
1143,0.0
1144,5.265121671982342e-12
1145,0.0
1146,0.0
1147,46.74257148231983
1148,87.2722210807958
1149,46.742571482319828
1151,359.31390966958738
1152,456.0
1153,27360.0
1383,87.27215694470704
1384,0.0
1385,46.742571482319828
1386,0.0
2,1, 1,21, 0, 1,33.00,34.00,WinterDesignDay
631,21.000286853038664
632,21.000433286615765
633,21.000330669815836
634,21.000496706967675
635,32.086925153079118
954,2769.194801074791
955,166151.68806448746
992,3809.6080732057714
993,228576.48439234627
1019,958.8051989252092
1131,0.0
1132,60.0
1133,0.0
1134,0.0
1135,0.0
1136,0.0
1137,0.0
1138,0.0
1139,0.0
1140,0.0
1141,0.0
1142,0.0
1143,0.0
1144,5.265121671982342e-12
1145,0.0
1146,0.0
1147,46.266548531308668
1148,87.73408645470457
1149,46.26654853130866
1151,352.6693719151166
1152,456.0
1153,27360.0
1383,87.73402246978348
1384,0.0
1385,46.26654853130866
1386,0.0
2,1, 1,21, 0, 1,34.00,35.00,WinterDesignDay
631,21.000297938317858
632,21.000435354264778
633,21.00033236992964
634,21.00049917424358
635,32.08655155352202
954,2769.194801074791
955,166151.68806448746
992,3802.7139622353945
993,228162.83773412364
1019,958.8051989252092
1131,0.0
1132,60.0
1133,0.0
1134,0.0
1135,0.0
1136,0.0
1137,0.0
1138,0.0
1139,0.0
1140,0.0
1141,0.0
1142,0.0
1143,0.0
1144,5.265121671982342e-12
1145,0.0
1146,0.0
1147,45.79932803711814
1148,88.19508113351376
1149,45.79932803711813
1151,346.1477116578309
1152,456.0
1153,27360.0
1383,88.19501729944044
1384,0.0
1385,45.79932803711813
1386,0.0
2,1, 1,21, 0, 1,35.00,36.00,WinterDesignDay
631,21.00030842581929
632,21.000437378091016
633,21.000334023624668
634,21.00050158203169
635,32.086170580625097
954,2769.194801074791
955,166151.68806448746
992,3795.8327564008757
993,227749.96538405255
1019,958.8051989252092
1131,0.0
1132,60.0
1133,0.0
1134,0.0
1135,0.0
1136,0.0
1137,0.0
1138,0.0
1139,0.0
1140,0.0
1141,0.0
1142,0.0
1143,0.0
1144,0.0
1145,0.0
1146,0.0
1147,45.34074752980977
1148,88.65520683108609
1149,45.34074752980977
1151,339.74686422188878
1152,456.0
1153,27360.0
1383,88.65514314747976
1384,0.0
1385,45.34074752980977
1386,0.0
2,1, 1,21, 0, 1,36.00,37.00,WinterDesignDay
631,21.000300182141456
632,21.000439333057828
633,21.000335607124105
634,21.00050390031981
635,32.08578283716336
954,2769.194801074791
955,166151.68806448746
992,3788.9644351895947
993,227337.86611137566
1019,958.8051989252092
1131,0.0
1132,60.0
1133,0.0
1134,0.0
1135,0.0
1136,0.0
1137,0.0
1138,0.0
1139,0.0
1140,0.0
1141,0.0
1142,0.0
1143,0.0
1144,0.0
1145,0.0
1146,0.0
1147,44.890647228792079
1148,89.11446531797985
1149,44.890647228792079
1151,333.46415940343919
1152,456.0
1153,27360.0
1383,89.11440178443333
1384,0.0
1385,44.890647228792079
1386,0.0
2,1, 1,21, 0, 1,37.00,38.00,WinterDesignDay
631,21.000311175851505
632,21.00040714030866
633,21.000337102234778
634,21.00050610744511
635,32.085388128888308
954,2769.194801074791
955,166151.68806448746
992,3782.108979428786
993,226926.53876572717
1019,958.8051989252092
1131,0.0
1132,60.0
1133,0.0
1134,0.0
1135,0.0
1136,0.0
1137,0.0
1138,0.0
1139,0.0
1140,0.0
1141,0.0
1142,0.0
1143,0.0
1144,0.0
1145,0.0
1146,0.0
1147,44.44886997279542
1148,89.57285838785085
1149,44.44886997279542
1151,327.29764160072718
1152,456.0
1153,27360.0
1383,89.57279500394593
1384,0.0
1385,44.44886997279542
1386,0.0
2,1, 1,21, 0, 1,38.00,39.00,WinterDesignDay
631,21.00032153210039
632,21.000409468641107
633,21.00033849352625
634,21.0005081801398
635,32.08498639141693
954,2769.194801074791
955,166151.68806448746
992,3775.26636008705
993,226515.981605223
1019,958.8051989252092
1131,0.0
1132,60.0
1133,0.0
1134,0.0
1135,0.0
1136,0.0
1137,0.0
1138,0.0
1139,0.0
1140,0.0
1141,0.0
1142,0.0
1143,0.0
1144,0.0
1145,0.0
1146,0.0
1147,44.01526220886626
1148,90.03038784619177
1149,44.01526220886626
1151,321.2454061319593
1152,456.0
1153,27360.0
1383,90.03032461194018
1384,0.0
1385,44.01526220886626
1386,0.0
2,1, 1,21, 0, 1,39.00,40.00,WinterDesignDay
631,21.000331448393223
632,21.00041186459293
633,21.000339769962549
634,21.000510101754054
635,32.084578072495258
954,2769.194801074791
955,166151.68806448746
992,3768.4365488157329
993,226106.19292894397
1019,958.8051989252092
1131,0.0
1132,60.0
1133,0.0
1134,0.0
1135,0.0
1136,0.0
1137,0.0
1138,0.0
1139,0.0
1140,0.0
1141,0.0
1142,0.0
1143,0.0
1144,0.0
1145,0.0
1146,0.0
1147,43.58967285600951
1148,90.48705555858096
1149,43.58967285600951
1151,315.30482915230217
1152,456.0
1153,27360.0
1383,90.48699247336
1384,0.0
1385,43.58967285600951
1386,0.0
2,1, 1,21, 0, 1,40.00,41.00,WinterDesignDay
631,21.000320279482783
632,21.000414344639876
633,21.000340925054528
634,21.00051186443708
635,32.08416353252374
954,2769.194801074791
955,166151.68806448746
992,3761.6195238589136
993,225697.1714315348
1019,958.8051989252092
1131,0.0
1132,60.0
1133,0.0
1134,0.0
1135,0.0
1136,0.0
1137,0.0
1138,0.0
1139,0.0
1140,0.0
1141,0.0
1142,0.0
1143,0.0
1144,0.0
1145,0.0
1146,0.0
1147,43.17195363065286
1148,90.94286336295805
1149,43.17195363065286
1151,309.47411313755489
1152,456.0
1153,27360.0
1383,90.94280042608462
1384,0.0
1385,43.17195363065286
1386,0.0
2,1, 1,21, 0, 1,41.00,42.00,WinterDesignDay
631,21.00033052968288
632,21.00041659191284
633,21.000341956290958
634,21.00051346269483
635,32.08374318803863
954,2769.194801074791
955,166151.68806448746
992,3754.8152632633548
993,225288.91579580128
1019,958.8051989252092
1131,0.0
1132,60.0
1133,0.0
1134,0.0
1135,0.0
1136,0.0
1137,0.0
1138,0.0
1139,0.0
1140,0.0
1141,0.0
1142,0.0
1143,0.0
1144,0.0
1145,0.0
1146,0.0
1147,42.761958609495689
1148,91.39781303797061
1149,42.761958609495689
1151,303.751223896957
1152,456.0
1153,27360.0
1383,91.39775024903112
1384,0.0
1385,42.761958609495689
1386,0.0
2,1, 1,21, 0, 1,42.00,43.00,WinterDesignDay
631,21.00034019601864
632,21.00041864604802
633,21.000342864959309
634,21.000514896712475
635,32.08331757419709
954,2769.194801074791
955,166151.68806448746
992,3748.023745619786
993,224881.42473718717
1019,958.8051989252092
1131,0.0
1132,60.0
1133,0.0
1134,0.0
1135,0.0
1136,0.0
1137,0.0
1138,0.0
1139,0.0
1140,0.0
1141,0.0
1142,0.0
1143,0.0
1144,0.0
1145,0.0
1146,0.0
1147,42.35954535361679
1148,91.85190636933887
1149,42.35954535361679
1151,298.1344451211768
1152,456.0
1153,27360.0
1383,91.8518437279161
1384,0.0
1385,42.35954535361679
1386,0.0
2,1, 1,21, 0, 1,43.00,44.00,WinterDesignDay
631,21.000349446743095
632,21.000420511185984
633,21.000343655632876
634,21.000478068213238
635,32.082886525263827
954,2769.194801074791
955,166151.68806448746
992,3741.244950900818
993,224474.69705404907
1019,958.8051989252092
1131,0.0
1132,60.0
1133,0.0
1134,0.0
1135,0.0
1136,0.0
1137,0.0
1138,0.0
1139,0.0
1140,0.0
1141,0.0
1142,0.0
1143,0.0
1144,0.0
1145,0.0
1146,0.0
1147,41.96457365118117
1148,92.30514514368248
1149,41.96457365118117
1151,292.6212430878945
1152,456.0
1153,27360.0
1383,92.30508264935834
1384,0.0
1385,41.96457365118117