Program Version,EnergyPlus, Version 9.2.0-921312fa1d, YMD=2020.05.06 10:33
1,5,Environment Title[],Latitude[deg],Longitude[deg],Time Zone[],Elevation[m]
2,8,Day of Simulation[],Month[],Day of Month[],DST Indicator[1=yes 0=no],Hour[],StartMinute[],EndMinute[],DayType
3,5,Cumulative Day of Simulation[],Month[],Day of Month[],DST Indicator[1=yes 0=no],DayType  ! When Daily Report Variables Requested
4,2,Cumulative Days of Simulation[],Month[]  ! When Monthly Report Variables Requested
5,1,Cumulative Days of Simulation[] ! When Run Period Report Variables Requested
6,1,Calendar Year of Simulation[] ! When Annual Report Variables Requested
631,1,ZN_1_FLR_1_SEC_1,Zone Mean Air Temperature [C] !TimeStep
632,1,ZN_1_FLR_1_SEC_2,Zone Mean Air Temperature [C] !TimeStep
633,1,ZN_1_FLR_1_SEC_3,Zone Mean Air Temperature [C] !TimeStep
634,1,ZN_1_FLR_1_SEC_4,Zone Mean Air Temperature [C] !TimeStep
635,1,ZN_1_FLR_1_SEC_5,Zone Mean Air Temperature [C] !TimeStep
954,1,FCT SOFC,Generator Produced Electric Power [W] !TimeStep
955,1,FCT SOFC,Generator Produced Electric Energy [J] !TimeStep
992,1,FCT SOFC,Generator Produced Thermal Rate [W] !TimeStep
993,1,FCT SOFC,Generator Produced Thermal Energy [J] !TimeStep
1019,1,FCT SOFC,Generator Zone Sensible Heat Transfer Rate [W] !TimeStep
1131,1,MICROCOGEN1,Generator Off Mode Time [s] !TimeStep
1132,1,MICROCOGEN1,Generator Standby Mode Time [s] !TimeStep
1133,1,MICROCOGEN1,Generator Warm Up Mode Time [s] !TimeStep
1134,1,MICROCOGEN1,Generator Normal Operating Mode Time [s] !TimeStep
1135,1,MICROCOGEN1,Generator Cool Down Mode Time [s] !TimeStep
1136,1,MICROCOGEN1,Generator Produced Electric Power [W] !TimeStep
1137,1,MICROCOGEN1,Generator Produced Electric Energy [J] !TimeStep
1138,1,MICROCOGEN1,Generator Produced Thermal Rate [W] !TimeStep
1139,1,MICROCOGEN1,Generator Produced Thermal Energy [J] !TimeStep
1140,1,MICROCOGEN1,Generator Electric Efficiency [] !TimeStep
1141,1,MICROCOGEN1,Generator Thermal Efficiency [] !TimeStep
1142,1,MICROCOGEN1,Generator Gross Input Heat Rate [W] !TimeStep
1143,1,MICROCOGEN1,Generator Steady State Engine Heat Generation Rate [W] !TimeStep
1144,1,MICROCOGEN1,Generator Engine Heat Exchange Rate [W] !TimeStep
1145,1,MICROCOGEN1,Generator Air Mass Flow Rate [kg/s] !TimeStep
1146,1,MICROCOGEN1,Generator Fuel Mass Flow Rate [kg/s] !TimeStep
1147,1,MICROCOGEN1,Generator Engine Temperature [C] !TimeStep
1148,1,MICROCOGEN1,Generator Coolant Inlet Temperature [C] !TimeStep
1149,1,MICROCOGEN1,Generator Coolant Outlet Temperature [C] !TimeStep
1151,1,MICROCOGEN1,Generator Zone Sensible Heat Transfer Rate [W] !TimeStep
1152,1,MYTHICAL WIND TURBINE,Generator Produced Electric Power [W] !TimeStep
1153,1,MYTHICAL WIND TURBINE,Generator Produced Electric Energy [J] !TimeStep
1383,1,MICROCHP SENERTECH PUMP-MICROCOGEN1NODE,System Node Temperature [C] !TimeStep
1384,1,MICROCHP SENERTECH PUMP-MICROCOGEN1NODE,System Node Mass Flow Rate [kg/s] !TimeStep
1385,1,MICROCHP SENERTECH SUPPLY EQUIPMENT OUTLET NODE,System Node Temperature [C] !TimeStep
1386,1,MICROCHP SENERTECH SUPPLY EQUIPMENT OUTLET NODE,System Node Mass Flow Rate [kg/s] !TimeStep
9,1,Electricity:Facility [J] !Hourly
1059,1,ElectricitySurplusSold:Facility [J] !Hourly
1340,1,Electricity:Plant [J] !Hourly
1157,1,Electricity:HVAC [J] !Hourly
21,1,Electricity:Building [J] !Hourly
1008,1,Cogeneration:Gas [J] !Hourly
957,1,ElectricityProduced:Facility [J] !Hourly
End of Data Dictionary
1,NEWARK ANN HTG 99.6% CONDNS DB,  41.98, -87.92,  -6.00, 201.00
2,1, 1,21, 0, 1, 0.00, 1.00,WinterDesignDay
631,21.0753029693398
632,21.00042881006807
633,21.000330197694898
634,21.000491487991739
635,32.09253426776162
954,2769.194801074791
955,166151.68806448746
992,4348.8834070905709
993,260933.00442543426
1019,958.8051989252092
1131,0.0
1132,0.0
1133,0.0
1134,60.0
1135,0.0
1136,5500.0
1137,330000.0
1138,12162.549891639803
1139,729752.9934983882
1140,0.27
1141,0.66
1142,20370.37037037037
1143,13444.444444444443
1144,12162.5498916398
1145,0.0
1146,0.00042782171610720164
1147,75.34062085279321
1148,51.65556247980705
1149,58.92692329322533
1151,733.2928981720701
1152,456.0
1153,27360.0
1383,51.63922483025216
1384,0.4
1385,58.91058564367044
1386,0.4
2,1, 1,21, 0, 1, 1.00, 2.00,WinterDesignDay
631,21.0767556468493
632,21.000426764718968
633,21.00032792477071
634,21.000488465617594
635,32.092497972780339
954,2769.194801074791
955,166151.68806448746
992,4310.828605224193
993,258649.71631345157
1019,958.8051989252092
1131,0.0
1132,0.0
1133,0.0
1134,60.0
1135,0.0
1136,5500.0
1137,330000.0
1138,11611.268675089079
1139,696676.1205053447
1140,0.27
1141,0.66
1142,20370.37037037037
1143,13444.444444444443
1144,11611.268675089088
1145,0.0
1146,0.00042782171610720164
1147,76.81156720777669
1148,54.20175101062187
1149,61.14183890131368
1151,743.4368221444792
1152,456.0
1153,27360.0
1383,54.17990802602592
1384,0.4
1385,61.119995916717737
1386,0.4
2,1, 1,21, 0, 1, 2.00, 3.00,WinterDesignDay
631,21.081348355746646
632,21.00042466817311
633,21.00032586048943
634,21.00048573746945
635,32.09246460010711
954,2769.194801074791
955,166151.68806448746
992,4280.672724166047
993,256840.36344996285
1019,958.8051989252092
1131,0.0
1132,0.0
1133,0.0
1134,60.0
1135,0.0
1136,5500.0
1137,330000.0
1138,11437.600562160102
1139,686256.0337296061
1140,0.27
1141,0.66
1142,20370.37037037037
1143,13444.444444444443
1144,11437.600562160138
1145,0.0
1146,0.00042782171610720164
1147,78.48975853365634
1148,56.21943302333978
1149,63.054400150174377
1151,763.5868200665854
1152,456.0
1153,27360.0
1383,56.20407575168744
1384,0.4
1385,63.03904287852203
1386,0.4
2,1, 1,21, 0, 1, 3.00, 4.00,WinterDesignDay
631,21.08996479217114
632,21.000422598536745
633,21.000324014689693
634,21.00048332126764
635,32.09243450573943
954,2769.194801074791
955,166151.68806448746
992,4252.069543995374
993,255124.17263972248
1019,958.8051989252092
1131,0.0
1132,0.0
1133,0.0
1134,60.0
1135,0.0
1136,5500.0
1137,330000.0
1138,11357.127957385917
1139,681427.677443155
1140,0.27
1141,0.66
1142,20370.37037037037
1143,13444.444444444443
1144,11357.127957385888
1145,0.0
1146,0.00042782171610720164
1147,80.24562391172054
1148,58.13322950516753
1149,64.91886553468156
1151,786.5581395492565
1152,456.0
1153,27360.0
1383,58.11919237730962
1384,0.4
1385,64.90482840682366
1386,0.4
2,1, 1,21, 0, 1, 4.00, 5.00,WinterDesignDay
631,21.102527926572717
632,21.00042081703684
633,21.00032238590821
634,21.000481210223478
635,32.09240787509808
954,2769.194801074791
955,166151.68806448746
992,4223.895346409111
993,253433.72078454664
1019,958.8051989252092
1131,0.0
1132,0.0
1133,0.0
1134,60.0
1135,0.0
1136,5500.0
1137,330000.0
1138,11308.499077153461
1139,678509.9446292077
1140,0.27
1141,0.66
1142,20370.37037037037
1143,13444.444444444443
1144,11308.499077153458
1145,0.0
1146,0.00042782171610720164
1147,82.03481829233216
1148,60.01832789244569
1149,66.77368593450024
1151,810.5505751168424
1152,456.0
1153,27360.0
1383,60.00461609740299
1384,0.4
1385,66.75997413945754
1386,0.4
2,1, 1,21, 0, 1, 5.00, 6.00,WinterDesignDay
631,21.118466801402133
632,21.000419259107088
633,21.00032095341424
634,21.000479370639608
635,32.09238498417714
954,2769.194801074791
955,166151.68806448746
992,4195.911875568315
993,251754.71253409887
1019,958.8051989252092
1131,0.0
1132,0.0
1133,0.0
1134,60.0
1135,0.0
1136,5500.0
1137,330000.0
1138,11273.860193950512
1139,676431.6116370306
1140,0.27
1141,0.66
1142,20370.37037037037
1143,13444.444444444443
1144,11273.860193950508
1145,0.0
1146,0.00042782171610720164
1147,83.83791444486369
1148,61.890669743229228
1149,68.62352821820983
1151,834.9444929522059
1152,456.0
1153,27360.0
1383,61.87704248341865
1384,0.4
1385,68.60990095839925
1386,0.4
2,1, 1,21, 0, 1, 6.00, 7.00,WinterDesignDay
631,21.13711716865548
632,21.00041790026387
633,21.000319698145906
634,21.000477771238839
635,32.09236652350545
954,2769.194801074791
955,166151.68806448746
992,4168.060132337384
993,250083.60794024304
1019,958.8051989252092
1131,0.0
1132,0.0
1133,0.0
1134,60.0
1135,0.0
1136,5500.0
1137,330000.0
1138,11246.045572500969
1139,674762.7343500581
1140,0.27
1141,0.66
1142,20370.37037037037
1143,13444.444444444443
1144,11246.045572500952
1145,0.0
1146,0.00042782171610720164
1147,85.645506240029
1148,63.75420273672516
1149,70.46865661452164
1151,859.4747953005862
1152,456.0
1153,27360.0
1383,63.7406517773009
1384,0.4
1385,70.45510565509737
1386,0.4
2,1, 1,21, 0, 1, 7.00, 8.00,WinterDesignDay
631,21.157966513191686
632,21.000416716249516
633,21.000339138107319
634,21.00047638297698
635,32.09235375714615
954,2769.194801074791
955,166151.68806448746
992,4140.319299794526
993,248419.15798767156
1019,958.8051989252092
1131,0.0
1132,0.0
1133,0.0
1134,60.0
1135,0.0
1136,4275.835076419989
1137,256550.10458519934
1138,9996.487668559452
1139,599789.2601135671
1140,0.27
1141,0.66
1142,15836.42620896292
1143,10452.041297915528
1144,9996.487668559445
1145,0.0
1146,0.0003325991091246122
1147,85.06750103307837
1148,65.61032016568722
1149,71.57696436835578
1151,884.020440309188
1152,456.0
1153,27360.0
1383,65.55799659552544
1384,0.4
1385,71.524640798194
1386,0.4
2,1, 1,21, 0, 1, 8.00, 9.00,WinterDesignDay
631,21.176507026367
632,21.000415685993568
633,21.00033879114245
634,21.00047518006469
635,32.09234853378694
954,2769.194801074791
955,166151.68806448746
992,4115.122166742392
993,246907.33000454354
1019,958.8051989252092
1131,0.0
1132,0.0
1133,0.0
1134,60.0
1135,0.0
1136,1990.5039693754573
1137,119430.23816252745
1138,7025.79098597056
1139,421547.4591582336
1140,0.27
1141,0.66
1142,7372.236923612804
1143,4865.676369584451
1144,7025.7909859705819
1145,0.00006993355588011015
1146,0.00015483287710843727
1147,80.96990716971786
1148,67.29624538062164
1149,71.48840786341478
1151,875.8462589425936
1152,456.0
1153,27360.0
1383,67.20824244579315
1384,0.4
1385,71.40040492858629
1386,0.4
2,1, 1,21, 0, 1, 9.00,10.00,WinterDesignDay
631,21.18435810369181
632,21.000414790160133
633,21.000338522054049
634,21.000474139014505
635,32.09235324602501
954,2769.194801074791
955,166151.68806448746
992,4095.3119151524017
993,245718.7149091441
1019,958.8051989252092
1131,0.0
1132,0.0
1133,0.0
1134,60.0
1135,0.0
1136,194.21350650371986
1137,11652.810390223192
1138,3605.4968665027297
1139,216329.81199016379
1140,0.27
1141,0.66
1142,719.3092833471105
1143,474.74412700909297
1144,3605.496866502699
1145,0.000027931864427628268
1146,0.000015107046480657929
1147,75.63825072137823
1148,68.62174249023424
1149,70.77253295281858
1151,819.4235869944085
1152,456.0
1153,27360.0
1383,68.54956188541358
1384,0.4
1385,70.70035234799792
1386,0.4
2,1, 1,21, 0, 1,10.00,11.00,WinterDesignDay
631,21.176375060883954
632,21.000414011184249
633,21.00033816367156
634,21.000473238517324
635,32.09237062230052
954,2769.194801074791
955,166151.68806448746
992,4081.204009183241
993,244872.24055099448
1019,958.8051989252092
1131,0.0
1132,0.0
1133,0.0
1134,0.0
1135,60.0
1136,0.0
1137,0.0
1138,1536.9911220320055
1139,92219.46732192033
1140,0.0
1141,0.0
1142,0.0
1143,0.0
1144,1536.991122032035
1145,0.0
1146,0.0
1147,72.55661488880097
1148,69.56570525794871
1149,70.4824028482719
1151,746.1258886216538
1152,456.0
1153,27360.0
1383,69.54773559066146
1384,0.4
1385,70.46443318098466
1386,0.4
2,1, 1,21, 0, 1,11.00,12.00,WinterDesignDay
631,21.156589469274644
632,21.00041333558184
633,21.00033789922768
634,21.00047246214356
635,32.09240306250955
954,2769.194801074791
955,166151.68806448746
992,4072.694587811447
993,244361.6752686868
1019,958.8051989252092
1131,0.0
1132,59.999999999980818
1133,0.0
1134,0.0
1135,1.9184653865522706e-11
1136,0.0
1137,0.0
1138,0.0
1139,0.0
1140,0.0
1141,0.0
1142,0.0
1143,0.0
1144,0.0
1145,0.0
1146,0.0
1147,71.60643463499298
1148,70.13508493397123
1149,71.60643463499298
1151,703.7999179559954
1152,456.0
1153,27360.0
1383,70.13499049065521
1384,0.0
1385,71.60643463499298
1386,0.0
2,1, 1,21, 0, 1,12.00,13.00,WinterDesignDay
631,21.133304663086624
632,21.000412753524988
633,21.000337692132175
634,21.000508159420034
635,32.092451726530267
954,2769.194801074791
955,166151.68806448746
992,4066.2628483435739
993,243975.7709006144
1019,958.8051989252092
1131,0.0
1132,60.0
1133,0.0
1134,0.0
1135,0.0
1136,0.0
1137,0.0
1138,0.0
1139,0.0
1140,0.0
1141,0.0
1142,0.0
1143,0.0
1144,0.0
1145,0.0
1146,0.0
1147,70.67352252119045
1148,70.56546002445384
1149,70.67352252119045
1151,690.8918161652936
1152,456.0
1153,27360.0
1383,70.56542122876151
1384,0.0
1385,70.67352252119045
1386,0.0
2,1, 1,21, 0, 1,13.00,14.00,WinterDesignDay
631,21.111065073309999
632,21.000412256924066
633,21.00033753744711
634,21.00050836593905
635,32.09251603322543
954,2769.194801074791
955,166151.68806448746
992,4059.3161512065564
993,243558.96907239338
1019,958.8051989252092
1131,0.0
1132,60.0
1133,0.0
1134,0.0
1135,0.0
1136,0.0
1137,0.0
1138,0.0
1139,0.0
1140,0.0
1141,0.0
1142,0.0
1143,0.0
1144,1.0530243343964685e-11
1145,0.0
1146,0.0
1147,69.75743111975149
1148,71.03030478881296
1149,69.75743111975148
1151,678.3819828112465
1152,456.0
1153,27360.0
1383,71.03025009347289
1384,0.0
1385,69.75743111975148
1386,0.0
2,1, 1,21, 0, 1,14.00,15.00,WinterDesignDay
631,21.090976872763187
632,21.00041184365971
633,21.00033742940978
634,21.00050846207515
635,32.09259319963852
954,2769.194801074791
955,166151.68806448746
992,4052.148811860803
993,243128.9287116482
1019,958.8051989252092
1131,0.0
1132,60.0
1133,0.0
1134,0.0
1135,0.0
1136,0.0
1137,0.0
1138,0.0
1139,0.0
1140,0.0
1141,0.0
1142,0.0
1143,0.0
1144,0.0
1145,0.0
1146,0.0
1147,68.85786871221339
1148,71.50992604688412
1149,68.85786871221339
1151,666.1505324563086
1152,456.0
1153,27360.0
1383,71.50986436662149
1384,0.0
1385,68.85786871221339
1386,0.0
2,1, 1,21, 0, 1,15.00,16.00,WinterDesignDay
631,21.07268676310696
632,21.000411512166619
633,21.00033736376844
634,21.0005083449167
635,32.092678668965358
954,2769.194801074791
955,166151.68806448746
992,4044.891064269116
993,242693.46385614694
1019,958.8051989252092
1131,0.0
1132,60.0
1133,0.0
1134,0.0
1135,0.0
1136,0.0
1137,0.0
1138,0.0
1139,0.0
1140,0.0
1141,0.0
1142,0.0
1143,0.0
1144,0.0
1145,0.0
1146,0.0
1147,67.97456942974108
1148,71.99560741772035
1149,67.97456942974108
1151,654.1312098529763
1152,456.0
1153,27360.0
1383,71.99554271655868
1384,0.0
1385,67.97456942974108
1386,0.0
2,1, 1,21, 0, 1,16.00,17.00,WinterDesignDay
631,21.055553466529223
632,21.00041125924929
633,21.000337337275963
634,21.000508323811638
635,32.09276727182341
954,2769.194801074791
955,166151.68806448746
992,4037.6007686616464
993,242256.04611969877
1019,958.8051989252092
1131,0.0
1132,60.0
1133,0.0
1134,0.0
1135,0.0
1136,0.0
1137,0.0
1138,0.0
1139,0.0
1140,0.0
1141,0.0
1142,0.0
1143,0.0
1144,0.0
1145,0.0
1146,0.0
1147,67.10726578676419
1148,72.48347354121228
1149,67.10726578676419
1151,642.3052180305971
1152,456.0
1153,27360.0
1383,72.48340758157136
1384,0.0
1385,67.10726578676419
1386,0.0
2,1, 1,21, 0, 1,17.00,18.00,WinterDesignDay
631,21.03912591514131
632,21.000411084852258
633,21.00033734754661
634,21.000508354389149
635,32.092853814633738
954,2769.194801074791
955,166151.68806448746
992,4030.3036011827459
993,241818.21607096474
1019,958.8051989252092
1131,0.0
1132,60.0
1133,0.0
1134,0.0
1135,0.0
1136,0.0
1137,0.0
1138,0.0
1139,0.0
1140,0.0
1141,0.0
1142,0.0
1143,0.0
1144,0.0
1145,0.0
1146,0.0
1147,66.2556833855938
1148,72.97180199269622
1149,66.2556833855938
1151,630.673732624104
1152,456.0
1153,27360.0
1383,72.97173555819397
1384,0.0
1385,66.2556833855938
1386,0.0
2,1, 1,21, 0, 1,18.00,19.00,WinterDesignDay
631,21.02318492520793
632,21.00041098899067
633,21.00033739306596
634,21.000508438867948
635,32.092933483099667
954,2769.194801074791
955,166151.68806448746
992,4023.0109282768296
993,241380.65569660979
1019,958.8051989252092
1131,0.0
1132,60.0
1133,0.0
1134,0.0
1135,0.0
1136,0.0
1137,0.0
1138,0.0
1139,0.0
1140,0.0
1141,0.0
1142,0.0
1143,0.0
1144,0.0
1145,0.0
1146,0.0
1147,65.41954456157819
1148,73.45982781342292
1149,65.41954456157819
1151,619.2417798911847
1152,456.0
1153,27360.0
1383,73.45976125224779
1384,0.0
1385,65.41954456157819
1386,0.0
2,1, 1,21, 0, 1,19.00,20.00,WinterDesignDay
631,21.007566813395476
632,21.00041097008844
633,21.00033747309693
634,21.000508575270346
635,32.09300250476649
954,2769.194801074791
955,166151.68806448746
992,4015.7277577260467
993,240943.6654635628
1019,958.8051989252092
1131,0.0
1132,60.0
1133,0.0
1134,0.0
1135,0.0
1136,0.0
1137,0.0
1138,0.0
1139,0.0
1140,0.0
1141,0.0
1142,0.0
1143,0.0
1144,1.0530243343964685e-11
1145,0.0
1146,0.0
1147,64.59857273148727
1148,73.94721184995844
1149,64.59857273148725
1151,608.0117354561852
1152,456.0
1153,27360.0
1383,73.94714531667346
1384,0.0
1385,64.59857273148725
1386,0.0
2,1, 1,21, 0, 1,20.00,21.00,WinterDesignDay
631,21.000160042362404
632,21.000411015156787
633,21.000337578107176
634,21.000508754346425
635,32.093057639820667
954,2769.194801074791
955,166151.68806448746
992,4008.4562807872559
993,240507.37684723538
1019,958.8051989252092
1131,0.0
1132,60.0
1133,0.0
1134,0.0
1135,0.0
1136,0.0
1137,0.0
1138,0.0
1139,0.0
1140,0.0
1141,0.0
1142,0.0
1143,0.0
1144,5.265121671982342e-12
1145,0.0
1146,0.0
1147,63.79249339982145
1148,74.43380430961634
1149,63.792493399821449
1151,596.9828129460269
1152,456.0
1153,27360.0
1383,74.43373787313917
1384,0.0
1385,63.792493399821449
1386,0.0
2,1, 1,21, 0, 1,21.00,22.00,WinterDesignDay
631,21.000074730571684
632,21.00041114641302
633,21.000337721967644
634,21.000508993315877
635,32.09309613402506
954,2769.194801074791
955,166151.68806448746
992,4001.1974371701719
993,240071.84623021034
1019,958.8051989252092
1131,0.0
1132,60.0
1133,0.0
1134,0.0
1135,0.0
1136,0.0
1137,0.0
1138,0.0
1139,0.0
1140,0.0
1141,0.0
1142,0.0
1143,0.0
1144,1.0530243343964685e-11
1145,0.0
1146,0.0
1147,63.00118301946418
1148,74.91953961010353
1149,63.001183019464168
1151,586.153494234036
1152,456.0
1153,27360.0
1383,74.91947330031025
1384,0.0
1385,63.001183019464168
1386,0.0
2,1, 1,21, 0, 1,22.00,23.00,WinterDesignDay
631,21.000065757509149
632,21.000411401316638
633,21.000337927441504
634,21.000509321130097
635,32.093115827151468
954,2769.194801074791
955,166151.68806448746
992,3993.951612515906
993,239637.09675095438
1019,958.8051989252092
1131,0.0
1132,60.0
1133,0.0
1134,0.0
1135,0.0
1136,0.0
1137,0.0
1138,0.0
1139,0.0
1140,0.0
1141,0.0
1142,0.0
1143,0.0
1144,1.0530243343964685e-11
1145,0.0
1146,0.0
1147,62.22450387234034
1148,75.40438966814424
1149,62.22450387234033
1151,575.4140147862943
1152,456.0
1153,27360.0
1383,75.40432349811946
1384,0.0
1385,62.22450387234033
1386,0.0
2,1, 1,21, 0, 1,23.00,24.00,WinterDesignDay
631,21.00008497967701
632,21.00041178558225
633,21.000338198172576
634,21.00050974180001
635,32.09311513261448
954,2769.194801074791
955,166151.68806448746
992,3986.7189514897656
993,239203.13708938595
1019,958.8051989252092
1131,0.0
1132,60.0
1133,0.0
1134,0.0
1135,0.0
1136,0.0
1137,0.0
1138,0.0
1139,0.0
1140,0.0
1141,0.0
1142,0.0
1143,0.0
1144,0.0
1145,0.0
1146,0.0
1147,61.46218681119379
1148,75.8883430390407
1149,61.46218681119379
1151,564.7746792422306
1152,456.0
1153,27360.0
1383,75.88827701453083
1384,0.0
1385,61.46218681119379
1386,0.0
2,1, 1,21, 0, 1,24.00,25.00,WinterDesignDay
631,21.000095672836964
632,21.000412304277316
633,21.00033853755818
634,21.000510258571738
635,32.09309301649421
954,2769.194801074791
955,166151.68806448746
992,3979.4994963841979
993,238769.9697830519
1019,958.8051989252092
1131,0.0
1132,60.0
1133,0.0
1134,0.0
1135,0.0
1136,0.0
1137,0.0
1138,0.0
1139,0.0
1140,0.0
1141,0.0
1142,0.0
1143,0.0
1144,5.265121671982342e-12
1145,0.0
1146,0.0
1147,60.71396677554174
1148,76.37139562192782
1149,60.713966775541738
1151,554.3310584354796
1152,456.0
1153,27360.0
1383,76.3713297451632
1384,0.0
1385,60.713966775541738
1386,0.0
2,1, 1,21, 0, 1,25.00,26.00,WinterDesignDay
631,21.00011203029771
632,21.000412964006889
633,21.00033894847147
634,21.000510876266085
635,32.093048742223029
954,2769.194801074791
955,166151.68806448746
992,3972.29324744499
993,238337.59484669943
1019,958.8051989252092
1131,0.0
1132,60.0
1133,0.0
1134,0.0
1135,0.0
1136,0.0
1137,0.0
1138,0.0
1139,0.0
1140,0.0
1141,0.0
1142,0.0
1143,0.0
1144,0.0
1145,0.0
1146,0.0
1147,59.979582927266189
1148,76.853546602183
1149,59.979582927266189
1151,544.0801806033469
1152,456.0
1153,27360.0
1383,76.8534808739678
1384,0.0
1385,59.979582927266189
1386,0.0
2,1, 1,21, 0, 1,26.00,27.00,WinterDesignDay
631,21.000121431413967
632,21.00041376621207
633,21.000339433043185
634,21.000511594592223
635,32.09298218487523
954,2769.194801074791
955,166151.68806448746
992,3965.1001868334126
993,237906.01121000475
1019,958.8051989252092
1131,0.0
1132,60.0
1133,0.0
1134,0.0
1135,0.0
1136,0.0
1137,0.0
1138,0.0
1139,0.0
1140,0.0
1141,0.0
1142,0.0
1143,0.0
1144,5.265121671982342e-12
1145,0.0
1146,0.0
1147,59.258779514095248
1148,77.33479663003659
1149,59.25877951409524
1151,534.0189753856803
1152,456.0
1153,27360.0
1383,77.33473105024103
1384,0.0
1385,59.25877951409524
1386,0.0
2,1, 1,21, 0, 1,27.00,28.00,WinterDesignDay
631,21.000129922977128
632,21.00041471133403
633,21.0003399922693
634,21.000512412553058
635,32.092893885887267
954,2769.194801074791
955,166151.68806448746
992,3957.920294761827
993,237475.2176857096
1019,958.8051989252092
1131,0.0
1132,60.0
1133,0.0
1134,0.0
1135,0.0
1136,0.0
1137,0.0
1138,0.0
1139,0.0
1140,0.0
1141,0.0
1142,0.0
1143,0.0
1144,5.265121671982342e-12
1145,0.0
1146,0.0
1147,58.55130527971611
1148,77.81514700307307
1149,58.551305279716107
1151,524.1437445280262
1152,456.0
1153,27360.0
1383,77.81508157207597
1384,0.0
1385,58.551305279716107
1386,0.0
2,1, 1,21, 0, 1,28.00,29.00,WinterDesignDay
631,21.000144407877096
632,21.00041580102593
633,21.00034062565299
634,21.00051333081529
635,32.09278453461596
954,2769.194801074791
955,166151.68806448746
992,3950.7535555015708
993,237045.21333009425
1019,958.8051989252092
1131,0.0
1132,60.0
1133,0.0
1134,0.0
1135,0.0
1136,0.0
1137,0.0
1138,0.0
1139,0.0
1140,0.0
1141,0.0
1142,0.0
1143,0.0
1144,5.265121671982342e-12
1145,0.0
1146,0.0
1147,57.856913725832217
1148,78.29459930645152
1149,57.85691372583221
1151,514.4512187217393
1152,456.0
1153,27360.0
1383,78.29453402369723
1384,0.0
1385,57.85691372583221
1386,0.0
2,1, 1,21, 0, 1,29.00,30.00,WinterDesignDay
631,21.000151839062317
632,21.0004170301983
633,21.000341330949327
634,21.000514343777195
635,32.09265511342871
954,2769.194801074791
955,166151.68806448746
992,3943.599953277483
993,236615.99719664898
1019,958.8051989252092
1131,0.0
1132,60.0
1133,0.0
1134,0.0
1135,0.0
1136,0.0
1137,0.0
1138,0.0
1139,0.0
1140,0.0
1141,0.0
1142,0.0
1143,0.0
1144,0.0
1145,0.0
1146,0.0
1147,57.175363040009489
1148,78.77315524945837
1149,57.175363040009489
1151,504.9379380991147
1152,456.0
1153,27360.0
1383,78.77309011460172
1384,0.0
1385,57.175363040009489
1386,0.0
2,1, 1,21, 0, 1,30.00,31.00,WinterDesignDay
631,21.00015817782807
632,21.000418391756857
633,21.00034210397221
634,21.00047951875639
635,32.092506891538167
954,2769.194801074791
955,166151.68806448746
992,3936.4594751128845
993,236187.56850677308
1019,958.8051989252092
1131,0.0
1132,60.0
1133,0.0
1134,0.0
1135,0.0
1136,0.0
1137,0.0
1138,0.0
1139,0.0
1140,0.0
1141,0.0
1142,0.0
1143,0.0
1144,1.0530243343964685e-11
1145,0.0
1146,0.0
1147,56.50641564011416
1148,79.25081659560324
1149,56.50641564011415
1151,495.60049526021376
1152,456.0
1153,27360.0
1383,79.25075160827403
1384,0.0
1385,56.50641564011415
1386,0.0
2,1, 1,21, 0, 1,31.00,32.00,WinterDesignDay
631,21.000171806245516
632,21.000419880768488
633,21.00034293847414
634,21.00048098168059
635,32.09234051652837
954,2769.194801074791
955,166151.68806448746
992,3929.3321112010405
993,235759.9266720624
1019,958.8051989252092
1131,0.0
1132,60.0
1133,0.0
1134,0.0
1135,0.0
1136,0.0
1137,0.0
1138,0.0
1139,0.0
1140,0.0
1141,0.0
1142,0.0
1143,0.0
1144,0.0
1145,0.0
1146,0.0
1147,55.84983844758658
1148,79.72758513088418
1149,55.84983844758658
1151,486.43581407441027
1152,456.0
1153,27360.0
1383,79.72752029070142
1384,0.0
1385,55.84983844758658
1386,0.0
2,1, 1,21, 0, 1,32.00,33.00,WinterDesignDay
631,21.00017710057352
632,21.00042148218474
633,21.000343826290466
634,21.00048265863325
635,32.092156761116637
954,2769.194801074791
955,166151.68806448746
992,3922.21784294983
993,235333.07057698983
1019,958.8051989252092
1131,0.0
1132,60.0
1133,0.0
1134,0.0
1135,0.0
1136,0.0
1137,0.0
1138,0.0
1139,0.0
1140,0.0
1141,0.0
1142,0.0
1143,0.0
1144,0.0
1145,0.0
1146,0.0
1147,55.205402848926329
1148,80.2034627045096
1149,55.205402848926329
1151,477.4406196956915
1152,456.0
1153,27360.0
1383,80.20339872623103
1384,0.0
1385,55.205402848926329
1386,0.0
2,1, 1,21, 0, 1,33.00,34.00,WinterDesignDay
631,21.00019013218528
632,21.000423179290818
633,21.000344757354246
634,21.000484753373227
635,32.09195681513968
954,2769.194801074791
955,166151.68806448746
992,3915.1166055547334
993,234906.99633328399
1019,958.8051989252092
1131,0.0
1132,60.0
1133,0.0
1134,0.0
1135,0.0
1136,0.0
1137,0.0
1138,0.0
1139,0.0
1140,0.0
1141,0.0
1142,0.0
1143,0.0
1144,0.0
1145,0.0
1146,0.0
1147,54.57288416921247
1148,80.67845435866343
1149,54.57288416921247
1151,468.61166528472708
1152,456.0
1153,27360.0
1383,80.67839147528267
1384,0.0
1385,54.57288416921247
1386,0.0
2,1, 1,21, 0, 1,34.00,35.00,WinterDesignDay
631,21.000194337086155
632,21.0004249571557
633,21.000345720034994
634,21.000486889605378
635,32.09174160226757
954,2769.194801074791
955,166151.68806448746
992,3908.028318455794
993,234481.6991073476
1019,958.8051989252092
1131,0.0
1132,60.0
1133,0.0
1134,0.0
1135,0.0
1136,0.0
1137,0.0
1138,0.0
1139,0.0
1140,0.0
1141,0.0
1142,0.0
1143,0.0
1144,0.0
1145,0.0
1146,0.0
1147,53.952062185373929
1148,81.15256653267905
1149,53.952062185373929
1151,459.9460868403536
1152,456.0
1153,27360.0
1383,81.15250378593932
1384,0.0
1385,53.952062185373929
1386,0.0
2,1, 1,21, 0, 1,35.00,36.00,WinterDesignDay
631,21.000196794696863
632,21.00042679379587
633,21.000327023985297
634,21.000489093717435
635,32.0915120625793
954,2769.194801074791
955,166151.68806448746
992,3900.952949953304
993,234057.17699719824
1019,958.8051989252092
1131,0.0
1132,60.0
1133,0.0
1134,0.0
1135,0.0
1136,0.0
1137,0.0
1138,0.0
1139,0.0
1140,0.0
1141,0.0
1142,0.0
1143,0.0
1144,5.265121671982342e-12
1145,0.0
1146,0.0
1147,53.3427204403773
1148,81.62580216982197
1149,53.34272044037729
1151,451.4406471286844
1152,456.0
1153,27360.0
1383,81.62573955850049
1384,0.0
1385,53.34272044037729
1386,0.0
2,1, 1,21, 0, 1,36.00,37.00,WinterDesignDay
631,21.000209821089738
632,21.000428666515427
633,21.00032846901537
634,21.000491335704493
635,32.091269272255477
954,2769.194801074791
955,166151.68806448746
992,3893.8904725217787
993,233633.42835130669
1019,958.8051989252092
1131,0.0
1132,60.0
1133,0.0
1134,0.0
1135,0.0
1136,0.0
1137,0.0
1138,0.0
1139,0.0
1140,0.0
1141,0.0
1142,0.0
1143,0.0
1144,0.0
1145,0.0
1146,0.0
1147,52.74464661079689
1148,82.09816394311497
1149,52.74464661079689
1151,443.0926076150887
1152,456.0
1153,27360.0
1383,82.09810146627537
1384,0.0
1385,52.74464661079689
1386,0.0
2,1, 1,21, 0, 1,37.00,38.00,WinterDesignDay
631,21.000222016853934
632,21.000430557270947
633,21.000329892094073
634,21.000493594165016
635,32.09101341286401
954,2769.194801074791
955,166151.68806448746
992,3886.8408682767014
993,233210.4520966021
1019,958.8051989252092
1131,0.0
1132,60.0
1133,0.0
1134,0.0
1135,0.0
1136,0.0
1137,0.0
1138,0.0
1139,0.0
1140,0.0
1141,0.0
1142,0.0
1143,0.0
1144,-5.265121671982342e-12
1145,0.0
1146,0.0
1147,52.15763252721195
1148,82.56965398857513
1149,52.15763252721196
1151,434.8989624805704
1152,456.0
1153,27360.0
1383,82.56959164578413
1384,0.0
1385,52.15763252721196
1386,0.0
2,1, 1,21, 0, 1,38.00,39.00,WinterDesignDay
631,21.000223643655017
632,21.000432440216728
633,21.000331476714658
634,21.000495837779238
635,32.09074477383823
954,2769.194801074791
955,166151.68806448746
992,3879.8041117834816
993,232788.2467070089
1019,958.8051989252092
1131,0.0
1132,60.0
1133,0.0
1134,0.0
1135,0.0
1136,0.0
1137,0.0
1138,0.0
1139,0.0
1140,0.0
1141,0.0
1142,0.0
1143,0.0
1144,5.265121671982342e-12
1145,0.0
1146,0.0
1147,51.58147365884771
1148,83.04027420255753
1149,51.581473658847709
1151,426.85669107387437
1152,456.0
1153,27360.0
1383,83.04021199340197
1384,0.0
1385,51.581473658847709
1386,0.0
2,1, 1,21, 0, 1,39.00,40.00,WinterDesignDay
631,21.000235648691569
632,21.000434291638148
633,21.000332992755113
634,21.000498037974294
635,32.09046416566595
954,2769.194801074791
955,166151.68806448746
992,3872.780180546025
993,232366.8108327615
1019,958.8051989252092
1131,0.0
1132,60.0
1133,0.0
1134,0.0
1135,0.0
1136,0.0
1137,0.0
1138,0.0
1139,0.0
1140,0.0
1141,0.0
1142,0.0
1143,0.0
1144,5.265121671982342e-12
1145,0.0
1146,0.0
1147,51.01596907700643
1148,83.51002637285194
1149,51.015969077006428
1151,418.9631474953148
1152,456.0
1153,27360.0
1383,83.50996429696679
1384,0.0
1385,51.015969077006428
1386,0.0
2,1, 1,21, 0, 1,40.00,41.00,WinterDesignDay
631,21.000235353637775
632,21.000436093357484
633,21.00033445420433
634,21.000500172730136
635,32.090172196004299
954,2769.194801074791
955,166151.68806448746
992,3865.769059212525
993,231946.14355275149
1019,958.8051989252092
1131,0.0
1132,60.0
1133,0.0
1134,0.0
1135,0.0
1136,0.0
1137,0.0
1138,0.0
1139,0.0
1140,0.0
1141,0.0
1142,0.0
1143,0.0
1144,5.265121671982342e-12
1145,0.0
1146,0.0
1147,50.460921955891169
1148,83.97891223727256
1149,50.46092195589116
1151,411.2157124369144
1152,456.0
1153,27360.0
1383,83.97885029431451
1384,0.0
1385,50.46092195589116
1386,0.0
2,1, 1,21, 0, 1,41.00,42.00,WinterDesignDay
631,21.000247279825
632,21.000437825074188
633,21.0003358431709
634,21.000502217865227
635,32.08986951759475
954,2769.194801074791
955,166151.68806448746
992,3858.770730232148
993,231526.24381392887
1019,958.8051989252092
1131,0.0
1132,60.0
1133,0.0
1134,0.0
1135,0.0
1136,0.0
1137,0.0
1138,0.0
1139,0.0
1140,0.0
1141,0.0
1142,0.0
1143,0.0
1144,5.265121671982342e-12
1145,0.0
1146,0.0
1147,49.91613869001787
1148,84.44693350986133
1149,49.91613869001786
1151,403.6114024086345
1152,456.0
1153,27360.0
1383,84.44687169943333
1384,0.0
1385,49.91613869001786
1386,0.0