Program Version,EnergyPlus, Version 9.0.1-bb7ca4f0da, YMD=2020.05.03 21:10
1,5,Environment Title[],Latitude[deg],Longitude[deg],Time Zone[],Elevation[m]
2,8,Day of Simulation[],Month[],Day of Month[],DST Indicator[1=yes 0=no],Hour[],StartMinute[],EndMinute[],DayType
3,5,Cumulative Day of Simulation[],Month[],Day of Month[],DST Indicator[1=yes 0=no],DayType  ! When Daily Meters Requested
4,2,Cumulative Days of Simulation[],Month[]  ! When Monthly Meters Requested
5,1,Cumulative Days of Simulation[] ! When Run Period Meters Requested
6,1,Calendar Year of Simulation[] ! When Annual Meters Requested
9,1,Electricity:Facility [J] !Hourly
1059,1,ElectricitySurplusSold:Facility [J] !Hourly
1340,1,Electricity:Plant [J] !Hourly
1157,1,Electricity:HVAC [J] !Hourly
21,1,Electricity:Building [J] !Hourly
1008,1,Cogeneration:Gas [J] !Hourly
957,1,ElectricityProduced:Facility [J] !Hourly
End of Data Dictionary
1,NEWARK ANN HTG 99.6% CONDNS DB,  41.98, -87.92,  -6.00, 201.00
2,1, 1,21, 0, 1, 0.00,60.00,WinterDesignDay
9,16596694.359667747
21,9990847.998000002
957,13019637.527468646
1008,47947215.280717518
1059,973570.0270426539
1157,1629921.7160696018
1340,285507.68559814346
2,1, 1,21, 0, 2, 0.00,60.00,WinterDesignDay
9,16707124.136219122
21,9990847.998000002
957,19907946.67808911
1008,78943626.58738439
1059,6031639.137626564
1157,1629278.3920674429
1340,396580.78615167309
2,1, 1,21, 0, 3, 0.00,60.00,WinterDesignDay
9,16576417.879795121
21,9990847.998000002
957,23537261.197513585
1008,92625230.614819
1059,8865363.732635897
1157,1465855.9209167599
1340,429297.0008783677
2,1, 1,21, 0, 4, 0.00,60.00,WinterDesignDay
9,16529555.150223626
21,9990847.998000002
957,23881767.847425134
1008,94359448.13154373
1059,9049682.321298168
1157,1406559.4876630759
1340,441730.7045605536
2,1, 1,21, 0, 5, 0.00,60.00,WinterDesignDay
9,16508179.21917976
21,9990847.998000002
957,24211985.408726068
1008,94862976.61796302
1059,9303032.574848123
1157,1385183.6043894075
1340,441730.656790352
2,1, 1,21, 0, 6, 0.00,60.00,WinterDesignDay
9,16539359.953364687
21,9990847.998000002
957,26854988.685200924
1008,106567046.71012444
1059,11285365.278227974
1157,1383154.84469322
1340,474940.15067146977
2,1, 1,21, 0, 7, 0.00,60.00,WinterDesignDay
9,16523085.21049602
21,9990847.998000002
957,24511808.5509798
1008,96946122.82931105
1059,9600614.217504295
1157,1400089.5875798693
1340,441730.6649161541
2,1, 1,21, 0, 8, 0.00,60.00,WinterDesignDay
9,16358284.729476482
21,9990847.998000002
957,23881628.256406659
1008,94356704.29127456
1059,9167034.926298714
1157,1398619.7973430139
1340,441730.69013346559
2,1, 1,21, 0, 9, 0.00,60.00,WinterDesignDay
9,16277334.180529116
21,9990847.998000002
957,24869899.542642904
1008,97457476.17028484
1059,9960630.331737049
1157,1385061.5026624038
1340,450028.27986671068
2,1, 1,21, 0,10, 0.00,60.00,WinterDesignDay
9,16284522.303997387
21,9990847.998000002
957,26489997.504675569
1008,105065282.52802959
1059,11275472.96568094
1157,1379782.1486770318
1340,462495.75732035
2,1, 1,21, 0,11, 0.00,60.00,WinterDesignDay
9,16274082.906632321
21,9990847.998000002
957,23882992.340536395
1008,94361758.13870603
1059,9207876.458393433
1157,1390107.8650701482
1340,441730.64356217478
2,1, 1,21, 0,12, 0.00,60.00,WinterDesignDay
9,16273564.164262759
21,9990847.998000002
957,23884101.874014029
1008,94364068.93023657
1059,9209151.433139358
1157,1389589.158752028
1340,441730.60751073309
2,1, 1,21, 0,13, 0.00,60.00,WinterDesignDay
9,17118985.576065914
21,9990847.998000002
957,27841931.520144166
1008,111523778.32175943
1059,11551439.598840775
1157,2185199.2297150127
1340,491541.948350903
2,1, 1,21, 0,14, 0.00,60.00,WinterDesignDay
9,16338698.22387328
21,9990847.998000002
957,27190561.515474228
1008,108674703.82307548
1059,11702347.569643254
1157,1413216.0064835603
1340,483237.8193897236
2,1, 1,21, 0,15, 0.00,60.00,WinterDesignDay
9,16305661.618025039
21,9990847.998000002
957,23886184.721707327
1008,94380795.74888629
1059,9196461.779797724
1157,1421686.614518967
1340,441730.6055060737
2,1, 1,21, 0,16, 0.00,60.00,WinterDesignDay
9,16272862.507363484
21,9990847.998000002
957,24209734.622287524
1008,94852556.9882366
1059,9458674.052262702
1157,1388887.3867125714
1340,441730.7226509131
2,1, 1,21, 0,17, 0.00,60.00,WinterDesignDay
9,16357971.365917877
21,9990847.998000002
957,27174886.955127844
1008,107880561.98479656
1059,11666251.261956644
1157,1385015.2631728228
1340,474940.2407450537
2,1, 1,21, 0,18, 0.00,60.00,WinterDesignDay
9,16525557.601446802
21,9990847.998000002
957,24183986.99096525
1008,95596856.79011825
1059,9349975.834163309
1157,1402561.8529481197
1340,441730.7904986844
2,1, 1,21, 0,19, 0.00,60.00,WinterDesignDay
9,16523113.864455333
21,9990847.998000002
957,23883564.454950688
1008,94366411.13284041
1059,9044195.070308755
1157,1400118.2576581357
1340,441730.64879719217
2,1, 1,21, 0,20, 0.00,60.00,WinterDesignDay
9,16515398.987283655
21,9990847.998000002
957,25205969.91859766
1008,98841272.78941356
1059,10049604.170898399
1157,1379955.2697059264
1340,454178.759577727
2,1, 1,21, 0,21, 0.00,60.00,WinterDesignDay
9,16521146.711521639
21,9990847.998000002
957,26160413.308412054
1008,103712253.5972089
1059,10844647.78618801
1157,1381536.6614169812
1340,458345.09210465956
2,1, 1,21, 0,22, 0.00,60.00,WinterDesignDay
9,16514397.946419102
21,9990847.998000002
957,23880342.79990262
1008,94349026.4502619
1059,9049489.368968098
1157,1391402.270469686
1340,441730.7179494177
2,1, 1,21, 0,23, 0.00,60.00,WinterDesignDay
9,16511645.525361229
21,9990847.998000002
957,23882404.38027987
1008,94356029.80576876
1059,9053683.9465083
1157,1388649.91570512
1340,441730.65165610748
2,1, 1,21, 0,24, 0.00,60.00,WinterDesignDay
9,16527240.945155058
21,9990847.998000002
957,26523157.758129319
1008,104247323.81629847
1059,11038192.88772689
1157,1375182.746377135
1340,470793.24077792096
1,NEWARK ANN CLG .4% CONDNS DB=>MWB,  41.98, -87.92,  -6.00, 201.00
2,1, 7,21, 0, 1, 0.00,60.00,SummerDesignDay
9,61459330.6297693
21,9990847.998000002
957,13135281.349730714
1008,51452260.56631185
1059,0.0
1157,46456285.71989628
1340,321779.951873012
2,1, 7,21, 0, 2, 0.00,60.00,SummerDesignDay
9,60515393.81396456
21,9990847.998000002
957,17424162.81935777
1008,76874886.23993989
1059,0.0
1157,45375841.64158635
1340,458287.21437821359
2,1, 7,21, 0, 3, 0.00,60.00,SummerDesignDay
9,59513155.21596334
21,9990847.998000002
957,17974910.84304751
1008,80491593.96283034
1059,0.0
1157,44356978.61761623
1340,474911.64034712305
2,1, 7,21, 0, 4, 0.00,60.00,SummerDesignDay
9,58554228.21012906
21,9990847.998000002
957,16796938.461177075
1008,74299249.25955285
1059,0.0
1157,43439607.83975939
1340,433355.41236964336
2,1, 7,21, 0, 5, 0.00,60.00,SummerDesignDay
9,57636029.024352099
21,9990847.998000002
957,15316949.709040489
1008,66704334.75013587
1059,0.0
1157,42650588.649527627
1340,391816.2888244452
2,1, 7,21, 0, 6, 0.00,60.00,SummerDesignDay
9,59377379.481688078
21,9990847.998000002
957,15736129.049496357
1008,66815354.49173431
1059,0.0
1157,44539158.158624339
1340,395976.9250637404
2,1, 7,21, 0, 7, 0.00,60.00,SummerDesignDay
9,64159714.13127687
21,9990847.998000002
957,15084085.437006385
1008,63886943.96897992
1059,0.0
1157,49338101.61079407
1340,379368.1224827996
2,1, 7,21, 0, 8, 0.00,60.00,SummerDesignDay
9,69245070.39909469
21,9990847.998000002
957,15055563.347800443
1008,64843775.65050308
1059,0.0
1157,54419298.187596749
1340,383527.8134979571
2,1, 7,21, 0, 9, 0.00,60.00,SummerDesignDay
9,74404578.76749304
21,9990847.998000002
957,15571913.014132975
1008,65769208.37284343
1059,0.0
1157,59574654.861440848
1340,387679.5080522022
2,1, 7,21, 0,10, 0.00,60.00,SummerDesignDay
9,78863563.39833825
21,9990847.998000002
957,15103374.275779864
1008,63820543.297338809
1059,0.0
1157,64033639.27072114
1340,387679.7296171199
2,1, 7,21, 0,11, 0.00,60.00,SummerDesignDay
9,82273645.56969936
21,9990847.998000002
957,15057691.989627706
1008,63650585.51465126
1059,0.0
1157,67452033.16473677
1340,379368.0069625943
2,1, 7,21, 0,12, 0.00,60.00,SummerDesignDay
9,85046096.1655926
21,9990847.998000002
957,15030358.400144687
1008,63430918.51525139
1059,0.0
1157,70224477.77218902
1340,379373.9954035731
2,1, 7,21, 0,13, 0.00,60.00,SummerDesignDay
9,84810093.47272776
21,9990847.998000002
957,15052842.517999312
1008,63617023.41761597
1059,0.0
1157,69988474.21373776
1340,379374.86099001529
2,1, 7,21, 0,14, 0.00,60.00,SummerDesignDay
9,91529517.95499316
21,9990847.998000002
957,15030586.650933436
1008,64616916.25119353
1059,0.0
1157,76703745.1723191
1340,383528.3846740738
2,1, 7,21, 0,15, 0.00,60.00,SummerDesignDay
9,93754505.77709536
21,9990847.998000002
957,15359146.15979869
1008,64778910.70066343
1059,0.0
1157,78928733.05762543
1340,383528.3214699453
2,1, 7,21, 0,16, 0.00,60.00,SummerDesignDay
9,94932591.22022823
21,9990847.998000002
957,15293375.10318687
1008,64608296.277754869
1059,0.0
1157,80102666.91123364
1340,387679.9109946095
2,1, 7,21, 0,17, 0.00,60.00,SummerDesignDay
9,94737973.86970663
21,9990847.998000002
957,15030741.181702357
1008,63434229.872358079
1059,0.0
1157,79912201.6949557
1340,383527.77675094795
2,1, 7,21, 0,18, 0.00,60.00,SummerDesignDay
9,92107791.6917807
21,9990847.998000002
957,15031947.145671688
1008,63433975.33504804
1059,0.0
1157,77286175.2705926
1340,379372.0231881325
2,1, 7,21, 0,19, 0.00,60.00,SummerDesignDay
9,84618138.3716914
21,9990847.998000002
957,15034125.079090042
1008,63448700.51522994
1059,0.0
1157,69796521.04652997
1340,379372.92716145029
2,1, 7,21, 0,20, 0.00,60.00,SummerDesignDay
9,75201517.42121446
21,9990847.998000002
957,15035142.899603103
1008,63456136.82971925
1059,0.0
1157,60208600.94234795
1340,379374.01286650969
2,1, 7,21, 0,21, 0.00,60.00,SummerDesignDay
9,70851227.76078888
21,9990847.998000002
957,15052434.046376137
1008,63615151.581429768
1059,0.0
1157,55790587.95263633
1340,379374.85015256868
2,1, 7,21, 0,22, 0.00,60.00,SummerDesignDay
9,67844743.14335695
21,9990847.998000002
957,15028454.257442592
1008,64600343.81511203
1059,0.0
1157,52779949.73940135
1340,383528.44595562238
2,1, 7,21, 0,23, 0.00,60.00,SummerDesignDay
9,65454978.84633422
21,9990847.998000002
957,15359479.007743082
1008,64778330.10939557
1059,0.0
1157,50390185.566840339
1340,383528.3214939083
2,1, 7,21, 0,24, 0.00,60.00,SummerDesignDay
9,63486909.51304477
21,9990847.998000002
957,15215650.748694709
1008,64191290.24605471
1059,0.0
1157,48422116.303896818
1340,383528.2511479478
End of Data
 Number of Records Written=         336
