Program Version,EnergyPlus, Version 9.0.1-bb7ca4f0da, YMD=2020.05.03 21:10
1,5,Environment Title[],Latitude[deg],Longitude[deg],Time Zone[],Elevation[m]
2,8,Day of Simulation[],Month[],Day of Month[],DST Indicator[1=yes 0=no],Hour[],StartMinute[],EndMinute[],DayType
3,5,Cumulative Day of Simulation[],Month[],Day of Month[],DST Indicator[1=yes 0=no],DayType  ! When Daily Report Variables Requested
4,2,Cumulative Days of Simulation[],Month[]  ! When Monthly Report Variables Requested
5,1,Cumulative Days of Simulation[] ! When Run Period Report Variables Requested
6,1,Calendar Year of Simulation[] ! When Annual Report Variables Requested
631,1,ZN_1_FLR_1_SEC_1,Zone Mean Air Temperature [C] !TimeStep
632,1,ZN_1_FLR_1_SEC_2,Zone Mean Air Temperature [C] !TimeStep
633,1,ZN_1_FLR_1_SEC_3,Zone Mean Air Temperature [C] !TimeStep
634,1,ZN_1_FLR_1_SEC_4,Zone Mean Air Temperature [C] !TimeStep
635,1,ZN_1_FLR_1_SEC_5,Zone Mean Air Temperature [C] !TimeStep
954,1,FCT SOFC,Generator Produced Electric Power [W] !TimeStep
955,1,FCT SOFC,Generator Produced Electric Energy [J] !TimeStep
992,1,FCT SOFC,Generator Produced Thermal Rate [W] !TimeStep
993,1,FCT SOFC,Generator Produced Thermal Energy [J] !TimeStep
1019,1,FCT SOFC,Generator Zone Sensible Heat Transfer Rate [W] !TimeStep
1131,1,MICROCOGEN1,Generator Off Mode Time [s] !TimeStep
1132,1,MICROCOGEN1,Generator Standby Mode Time [s] !TimeStep
1133,1,MICROCOGEN1,Generator Warm Up Mode Time [s] !TimeStep
1134,1,MICROCOGEN1,Generator Normal Operating Mode Time [s] !TimeStep
1135,1,MICROCOGEN1,Generator Cool Down Mode Time [s] !TimeStep
1136,1,MICROCOGEN1,Generator Produced Electric Power [W] !TimeStep
1137,1,MICROCOGEN1,Generator Produced Electric Energy [J] !TimeStep
1138,1,MICROCOGEN1,Generator Produced Thermal Rate [W] !TimeStep
1139,1,MICROCOGEN1,Generator Produced Thermal Energy [J] !TimeStep
1140,1,MICROCOGEN1,Generator Electric Efficiency [] !TimeStep
1141,1,MICROCOGEN1,Generator Thermal Efficiency [] !TimeStep
1142,1,MICROCOGEN1,Generator Gross Input Heat Rate [W] !TimeStep
1143,1,MICROCOGEN1,Generator Steady State Engine Heat Generation Rate [W] !TimeStep
1144,1,MICROCOGEN1,Generator Engine Heat Exchange Rate [W] !TimeStep
1145,1,MICROCOGEN1,Generator Air Mass Flow Rate [kg/s] !TimeStep
1146,1,MICROCOGEN1,Generator Fuel Mass Flow Rate [kg/s] !TimeStep
1147,1,MICROCOGEN1,Generator Engine Temperature [C] !TimeStep
1148,1,MICROCOGEN1,Generator Coolant Inlet Temperature [C] !TimeStep
1149,1,MICROCOGEN1,Generator Coolant Outlet Temperature [C] !TimeStep
1151,1,MICROCOGEN1,Generator Zone Sensible Heat Transfer Rate [W] !TimeStep
1152,1,MYTHICAL WIND TURBINE,Generator Produced Electric Power [W] !TimeStep
1153,1,MYTHICAL WIND TURBINE,Generator Produced Electric Energy [J] !TimeStep
1371,1,MICROCHP SENERTECH PUMP-MICROCOGEN1NODE,System Node Temperature [C] !TimeStep
1372,1,MICROCHP SENERTECH PUMP-MICROCOGEN1NODE,System Node Mass Flow Rate [kg/s] !TimeStep
1373,1,MICROCHP SENERTECH SUPPLY EQUIPMENT OUTLET NODE,System Node Temperature [C] !TimeStep
1374,1,MICROCHP SENERTECH SUPPLY EQUIPMENT OUTLET NODE,System Node Mass Flow Rate [kg/s] !TimeStep
9,1,Electricity:Facility [J] !Hourly
1059,1,ElectricitySurplusSold:Facility [J] !Hourly
1340,1,Electricity:Plant [J] !Hourly
1157,1,Electricity:HVAC [J] !Hourly
21,1,Electricity:Building [J] !Hourly
1008,1,Cogeneration:Gas [J] !Hourly
957,1,ElectricityProduced:Facility [J] !Hourly
End of Data Dictionary
1,NEWARK ANN HTG 99.6% CONDNS DB,  41.98, -87.92,  -6.00, 201.00
2,1, 1,21, 0, 1, 0.00, 1.00,WinterDesignDay
631,21.016754626185024
632,21.000420362310544
633,21.000327355372943
634,21.000477620596369
635,32.09366345829617
954,2769.194801074791
955,166151.68806448746
992,4257.389473549532
993,255443.36841297197
1019,958.8051989252092
1131,0.0
1132,0.0
1133,0.0
1134,60.0
1135,0.0
1136,5500.0
1137,330000.0
1138,10735.958095487164
1139,644157.4857292298
1140,0.27
1141,0.66
1142,20370.37037037037
1143,13444.444444444443
1144,10735.958095487136
1145,0.0
1146,0.00042782171610720164
1147,78.681501482807
1148,57.778310777237219
1149,64.1930290192616
1151,753.99868880734
1152,456.0
1153,27360.0
1371,57.76250065686308
1372,0.4
1373,64.17721889888748
1374,0.4
2,1, 1,21, 0, 1, 1.00, 2.00,WinterDesignDay
631,21.038859104446336
632,21.00041376131436
633,21.000321663369556
634,21.00046906568381
635,32.093679567886557
954,2769.194801074791
955,166151.68806448746
992,4200.626519393794
993,252037.5911636277
1019,958.8051989252092
1131,0.0
1132,0.0
1133,0.0
1134,60.0
1135,0.0
1136,5500.0
1137,330000.0
1138,10370.242544854847
1139,622214.5526912909
1140,0.27
1141,0.66
1142,20370.37037037037
1143,13444.444444444443
1144,10370.242544854824
1145,0.0
1146,0.00042782171610720164
1147,81.76473725622104
1148,61.57631972774358
1149,67.76980804589064
1151,790.177064893023
1152,456.0
1153,27360.0
1371,61.537380507644318
1372,0.4
1373,67.73086882579138
1374,0.4
2,1, 1,21, 0, 1, 2.00, 3.00,WinterDesignDay
631,21.066868636794337
632,21.000407547184403
633,21.000316412907869
634,21.000499720465247
635,32.09367639931991
954,2769.194801074791
955,166151.68806448746
992,4169.5635732101659
993,250173.81439260997
1019,958.8051989252092
1131,0.0
1132,0.0
1133,0.0
1134,60.0
1135,0.0
1136,5500.0
1137,330000.0
1138,10658.4513855144
1139,639507.083130864
1140,0.27
1141,0.66
1142,20370.37037037037
1143,13444.444444444443
1144,10658.451385514429
1145,0.0
1146,0.00042782171610720164
1147,84.40233726846039
1148,63.65474091325805
1149,70.01846225427087
1151,832.2473620314935
1152,456.0
1153,27360.0
1371,63.63760532094202
1372,0.4
1373,70.00132666195484
1374,0.4
2,1, 1,21, 0, 1, 3.00, 4.00,WinterDesignDay
631,21.09804820240706
632,21.000401996476389
633,21.000333982159114
634,21.000496019281937
635,32.09365594893179
954,2769.194801074791
955,166151.68806448746
992,4142.143209587757
993,248528.59257526545
1019,958.8051989252092
1131,0.0
1132,0.0
1133,0.0
1134,60.0
1135,0.0
1136,4439.828300356725
1137,266389.6980214035
1138,9826.71276308815
1139,589602.765785289
1140,0.27
1141,0.66
1142,16443.80851983972
1143,10852.913623094217
1144,9826.712763088151
1145,0.0
1146,0.0003453554477599881
1147,84.61628925968083
1148,65.4894231208362
1149,71.35486852676834
1151,868.0796508469925
1152,456.0
1153,27360.0
1371,65.44223264879422
1372,0.4
1373,71.30767805472637
1374,0.4
2,1, 1,21, 0, 1, 4.00, 5.00,WinterDesignDay
631,21.127021405974319
632,21.000397029788794
633,21.000331459266467
634,21.000492568864457
635,32.09362223832812
954,2769.194801074791
955,166151.68806448746
992,4117.160769982574
993,247029.64619895444
1019,958.8051989252092
1131,0.0
1132,0.0
1133,0.0
1134,60.0
1135,0.0
1136,2174.1062788276979
1137,130446.37672966186
1138,7115.897341313402
1139,426953.8404788041
1140,0.27
1141,0.66
1142,8052.245477139621
1143,5314.48201491215
1144,7115.897341313393
1145,0.00005223182642435883
1146,0.00016911452349227415
1147,81.01010832652644
1148,67.16097101352209
1149,71.40700800086734
1151,870.6270625335449
1152,456.0
1153,27360.0
1371,67.07404069068274
1372,0.4
1373,71.32007767802799
1374,0.4
2,1, 1,21, 0, 1, 5.00, 6.00,WinterDesignDay
631,21.14477056044383
632,21.00042719580114
633,21.000329193027608
634,21.00048928205622
635,32.093581100471258
954,2769.194801074791
955,166151.68806448746
992,4097.246452407106
993,245834.78714442632
1019,958.8051989252092
1131,0.0
1132,0.0
1133,0.0
1134,60.0
1135,0.0
1136,368.33614747206749
1137,22100.168848324047
1138,3830.4304090987559
1139,229825.82454592535
1140,0.27
1141,0.66
1142,1364.2079536002498
1143,900.3772493761649
1144,3830.430409098748
1145,0.00004909364376020775
1146,0.000028651309584693678
1147,75.94770025033475
1148,68.49340217523768
1149,70.77842844318394
1151,820.7952237004355
1152,456.0
1153,27360.0
1371,68.42101159230453
1372,0.4
1373,70.70603786025079
1374,0.4
2,1, 1,21, 0, 1, 6.00, 7.00,WinterDesignDay
631,21.14560186362742
632,21.000425240875335
633,21.000327018707116
634,21.000486420350826
635,32.09353916719842
954,2769.194801074791
955,166151.68806448746
992,4082.789412991782
993,244967.3647795069
1019,958.8051989252092
1131,0.0
1132,0.0
1133,0.0
1134,0.0
1135,60.0
1136,0.0
1137,0.0
1138,1660.7856427148175
1139,99647.13856288904
1140,0.0
1141,0.0
1142,0.0
1143,0.0
1144,1660.7856427148298
1145,0.0
1146,0.0
1147,72.69251042295217
1148,69.46068284835056
1149,70.451234251947
1151,751.0433001677378
1152,456.0
1153,27360.0
1371,69.43706371195421
1372,0.4
1373,70.42761511555065
1374,0.4
2,1, 1,21, 0, 1, 7.00, 8.00,WinterDesignDay
631,21.132687919638238
632,21.00042329195291
633,21.00032511437498
634,21.000483899080075
635,32.09350254471501
954,2769.194801074791
955,166151.68806448746
992,4074.1905607197675
993,244451.43364318607
1019,958.8051989252092
1131,0.0
1132,59.999999999980818
1133,0.0
1134,0.0
1135,1.9184653865522706e-11
1136,0.0
1137,0.0
1138,0.0
1139,0.0
1140,0.0
1141,0.0
1142,0.0
1143,0.0
1144,0.0
1145,0.0
1146,0.0
1147,71.73924304570018
1148,70.03599359436562
1149,71.73924304570018
1151,706.2040361163641
1152,456.0
1153,27360.0
1371,70.03589598715586
1372,0.0
1373,71.73924304570018
1374,0.0
2,1, 1,21, 0, 1, 8.00, 9.00,WinterDesignDay
631,21.114423477768136
632,21.00042136974914
633,21.00032342950992
634,21.000481682384576
635,32.09347605701686
954,2769.194801074791
955,166151.68806448746
992,4067.696549785656
993,244061.79298713935
1019,958.8051989252092
1131,0.0
1132,60.0
1133,0.0
1134,0.0
1135,0.0
1136,0.0
1137,0.0
1138,0.0
1139,0.0
1140,0.0
1141,0.0
1142,0.0
1143,0.0
1144,1.0530243343964685e-11
1145,0.0
1146,0.0
1147,70.80343307126245
1148,70.47047472011137
1149,70.80343307126243
1151,693.1328841943968
1152,456.0
1153,27360.0
1371,70.47043410827571
1372,0.0
1373,70.80343307126243
1374,0.0
2,1, 1,21, 0, 1, 9.00,10.00,WinterDesignDay
631,21.095901425883335
632,21.00041971091232
633,21.000321946520985
634,21.000479740005269
635,32.09346236273869
954,2769.194801074791
955,166151.68806448746
992,4060.720144656955
993,243643.20867941733
1019,958.8051989252092
1131,0.0
1132,60.0
1133,0.0
1134,0.0
1135,0.0
1136,0.0
1137,0.0
1138,0.0
1139,0.0
1140,0.0
1141,0.0
1142,0.0
1143,0.0
1144,0.0
1145,0.0
1146,0.0
1147,69.88459023199599
1148,70.93724155178085
1149,69.88459023199599
1151,680.4892085772516
1152,456.0
1153,27360.0
1371,70.93718603254767
1372,0.0
1373,69.88459023199599
1374,0.0
2,1, 1,21, 0, 1,10.00,11.00,WinterDesignDay
631,21.07866358395925
632,21.000418259855555
633,21.000320647125585
634,21.000478047774459
635,32.09346144764843
954,2769.194801074791
955,166151.68806448746
992,4053.5375772416948
993,243212.25463450168
1019,958.8051989252092
1131,0.0
1132,60.0
1133,0.0
1134,0.0
1135,0.0
1136,0.0
1137,0.0
1138,0.0
1139,0.0
1140,0.0
1141,0.0
1142,0.0
1143,0.0
1144,0.0
1145,0.0
1146,0.0
1147,68.98239601010582
1148,71.41781373434903
1149,68.98239601010582
1151,668.1512845329215
1152,456.0
1153,27360.0
1371,71.41775167149116
1372,0.0
1373,68.98239601010582
1374,0.0
2,1, 1,21, 0, 1,11.00,12.00,WinterDesignDay
631,21.062599054556725
632,21.000417000274767
633,21.00031951462321
634,21.000476584431998
635,32.093471024983177
954,2769.194801074791
955,166151.68806448746
992,4046.2710620441459
993,242776.26372264877
1019,958.8051989252092
1131,0.0
1132,60.0
1133,0.0
1134,0.0
1135,0.0
1136,0.0
1137,0.0
1138,0.0
1139,0.0
1140,0.0
1141,0.0
1142,0.0
1143,0.0
1144,0.0
1145,0.0
1146,0.0
1147,68.0965662889261
1148,71.90401386999732
1149,68.0965662889261
1151,656.0449758038479
1152,456.0
1153,27360.0
1371,71.90394898254634
1372,0.0
1373,68.0965662889261
1374,0.0
2,1, 1,21, 0, 1,12.00,13.00,WinterDesignDay
631,21.047265777624238
632,21.000415916113515
633,21.00033876311803
634,21.000475330843945
635,32.093487405687657
954,2769.194801074791
955,166151.68806448746
992,4038.9749059387379
993,242338.49435632427
1019,958.8051989252092
1131,0.0
1132,60.0
1133,0.0
1134,0.0
1135,0.0
1136,0.0
1137,0.0
1138,0.0
1139,0.0
1140,0.0
1141,0.0
1142,0.0
1143,0.0
1144,0.0
1145,0.0
1146,0.0
1147,67.22682015493894
1148,72.39220630040568
1149,67.22682015493894
1151,644.1452670580458
1152,456.0
1153,27360.0
1371,72.39214024189742
1372,0.0
1373,67.22682015493894
1374,0.0
2,1, 1,21, 0, 1,13.00,14.00,WinterDesignDay
631,21.032282609412876
632,21.00041499300941
633,21.000338511565638
634,21.000474269346169
635,32.09350638467002
954,2769.194801074791
955,166151.68806448746
992,4031.6732105867529
993,241900.39263520516
1019,958.8051989252092
1131,0.0
1132,60.0
1133,0.0
1134,0.0
1135,0.0
1136,0.0
1137,0.0
1138,0.0
1139,0.0
1140,0.0
1141,0.0
1142,0.0
1143,0.0
1144,0.0
1145,0.0
1146,0.0
1147,66.37287371472519
1148,72.88077520579077
1149,66.37287371472519
1151,632.4498290752362
1152,456.0
1153,27360.0
1371,72.8807087112767
1372,0.0
1373,66.37287371472519
1374,0.0
2,1, 1,21, 0, 1,14.00,15.00,WinterDesignDay
631,21.01745278805412
632,21.000414219429165
633,21.000338330586549
634,21.00047338578122
635,32.09352378149841
954,2769.194801074791
955,166151.68806448746
992,4024.3766461852958
993,241462.59877111775
1019,958.8051989252092
1131,0.0
1132,60.0
1133,0.0
1134,0.0
1135,0.0
1136,0.0
1137,0.0
1138,0.0
1139,0.0
1140,0.0
1141,0.0
1142,0.0
1143,0.0
1144,0.0
1145,0.0
1146,0.0
1147,65.53444127652505
1148,73.36900304114087
1149,65.53444127652505
1151,620.960828738283
1152,456.0
1153,27360.0
1371,73.36893643724553
1372,0.0
1373,65.53444127652505
1374,0.0
2,1, 1,21, 0, 1,15.00,16.00,WinterDesignDay
631,21.00272588687908
632,21.000413585353085
633,21.000338061329843
634,21.000472667890365
635,32.09353574801493
954,2769.194801074791
955,166151.68806448746
992,4017.089913085752
993,241025.3947851451
1019,958.8051989252092
1131,0.0
1132,60.0
1133,0.0
1134,0.0
1135,0.0
1136,0.0
1137,0.0
1138,0.0
1139,0.0
1140,0.0
1141,0.0
1142,0.0
1143,0.0
1144,0.0
1145,0.0
1146,0.0
1147,64.71123879305887
1148,73.8565717439318
1149,64.71123879305887
1151,609.6795737394367
1152,456.0
1153,27360.0
1371,73.85650517566433
1372,0.0
1373,64.71123879305887
1374,0.0
2,1, 1,21, 0, 1,16.00,17.00,WinterDesignDay
631,21.000120041338709
632,21.000412974076988
633,21.000337818809589
634,21.00047197351288
635,32.093538859544349
954,2769.194801074791
955,166151.68806448746
992,4009.8150610118648
993,240588.90366071187
1019,958.8051989252092
1131,0.0
1132,60.0
1133,0.0
1134,0.0
1135,0.0
1136,0.0
1137,0.0
1138,0.0
1139,0.0
1140,0.0
1141,0.0
1142,0.0
1143,0.0
1144,5.265121671982342e-12
1145,0.0
1146,0.0
1147,63.902986537129688
1148,74.3433409068833
1149,63.90298653712968
1151,598.604868268565
1152,456.0
1153,27360.0
1371,74.3432744384952
1372,0.0
1373,63.90298653712968
1374,0.0
2,1, 1,21, 0, 1,17.00,18.00,WinterDesignDay
631,21.00005359612057
632,21.000412419750807
633,21.000337596053517
634,21.000471344705173
635,32.09353035450502
954,2769.194801074791
955,166151.68806448746
992,4002.552964596399
993,240153.17787578394
1019,958.8051989252092
1131,0.0
1132,60.0
1133,0.0
1134,0.0
1135,0.0
1136,0.0
1137,0.0
1138,0.0
1139,0.0
1140,0.0
1141,0.0
1142,0.0
1143,0.0
1144,-5.265121671982342e-12
1145,0.0
1146,0.0
1147,63.10963219205087
1148,74.82924912532187
1149,63.109632192050877
1151,587.7335709084332
1152,456.0
1153,27360.0
1371,74.82918278515574
1372,0.0
1373,63.109632192050877
1374,0.0
2,1, 1,21, 0, 1,18.00,19.00,WinterDesignDay
631,21.00007192800007
632,21.000412047917746
633,21.00033747079694
634,21.000507352616557
635,32.09350793838027
954,2769.194801074791
955,166151.68806448746
992,3995.303981445114
993,239718.23888670686
1019,958.8051989252092
1131,0.0
1132,60.0
1133,0.0
1134,0.0
1135,0.0
1136,0.0
1137,0.0
1138,0.0
1139,0.0
1140,0.0
1141,0.0
1142,0.0
1143,0.0
1144,0.0
1145,0.0
1146,0.0
1147,62.330947225819148
1148,75.31427016634452
1149,62.330947225819148
1151,576.9003164647567
1152,456.0
1153,27360.0
1371,75.31420396746249
1372,0.0
1373,62.330947225819148
1374,0.0
2,1, 1,21, 0, 1,19.00,20.00,WinterDesignDay
631,21.00008739766619
632,21.00041185476146
633,21.000337439482374
634,21.00050783828342
635,32.093469596077309
954,2769.194801074791
955,166151.68806448746
992,3988.0682416857764
993,239284.09450114656
1019,958.8051989252092
1131,0.0
1132,60.0
1133,0.0
1134,0.0
1135,0.0
1136,0.0
1137,0.0
1138,0.0
1139,0.0
1140,0.0
1141,0.0
1142,0.0
1143,0.0
1144,5.265121671982342e-12
1145,0.0
1146,0.0
1147,61.56666194183578
1148,75.79839342545027
1149,61.566661941835778
1151,566.2332427268705
1152,456.0
1153,27360.0
1371,75.79832737244233
1372,0.0
1373,61.566661941835778
1374,0.0
2,1, 1,21, 0, 1,20.00,21.00,WinterDesignDay
631,21.000097874114503
632,21.00041183927186
633,21.000337502478574
634,21.000508285910205
635,32.09341384095141
954,2769.194801074791
955,166151.68806448746
992,3980.8457761563188
993,238850.7465693791
1019,958.8051989252092
1131,0.0
1132,60.0
1133,0.0
1134,0.0
1135,0.0
1136,0.0
1137,0.0
1138,0.0
1139,0.0
1140,0.0
1141,0.0
1142,0.0
1143,0.0
1144,0.0
1145,0.0
1146,0.0
1147,60.81651001008226
1148,76.28161518830905
1149,60.81651001008226
1151,555.7622831895492
1152,456.0
1153,27360.0
1371,76.28154928328115
1372,0.0
1373,60.81651001008226
1374,0.0
2,1, 1,21, 0, 1,21.00,22.00,WinterDesignDay
631,21.0001071296986
632,21.000412001266647
633,21.00033766031447
634,21.00050859174424
635,32.09333984760448
954,2769.194801074791
955,166151.68806448746
992,3973.6365766278997
993,238418.19459767399
1019,958.8051989252092
1131,0.0
1132,60.0
1133,0.0
1134,0.0
1135,0.0
1136,0.0
1137,0.0
1138,0.0
1139,0.0
1140,0.0
1141,0.0
1142,0.0
1143,0.0
1144,0.0
1145,0.0
1146,0.0
1147,60.080229986074588
1148,76.76393480930116
1149,60.080229986074588
1151,545.4849897901003
1152,456.0
1153,27360.0
1371,76.76386905298152
1372,0.0
1373,60.080229986074588
1374,0.0
2,1, 1,21, 0, 1,22.00,23.00,WinterDesignDay
631,21.000122484187416
632,21.000412344078045
633,21.00033791439904
634,21.00050906967411
635,32.09324719384767
954,2769.194801074791
955,166151.68806448746
992,3966.440622743602
993,237986.43736461615
1019,958.8051989252092
1131,0.0
1132,60.0
1133,0.0
1134,0.0
1135,0.0
1136,0.0
1137,0.0
1138,0.0
1139,0.0
1140,0.0
1141,0.0
1142,0.0
1143,0.0
1144,0.0
1145,0.0
1146,0.0
1147,59.35756532968474
1148,77.2453530175475
1149,59.35756532968474
1151,535.3978099338531
1152,456.0
1153,27360.0
1371,77.24528741003897
1372,0.0
1373,59.35756532968474
1374,0.0
2,1, 1,21, 0, 1,23.00,24.00,WinterDesignDay
631,21.000130571580795
632,21.00041286858048
633,21.000338266390196
634,21.000509673751826
635,32.093135984957068
954,2769.194801074791
955,166151.68806448746
992,3959.257890174038
993,237555.47341044228
1019,958.8051989252092
1131,0.0
1132,60.0
1133,0.0
1134,0.0
1135,0.0
1136,0.0
1137,0.0
1138,0.0
1139,0.0
1140,0.0
1141,0.0
1142,0.0
1143,0.0
1144,5.265121671982342e-12
1145,0.0
1146,0.0
1147,58.64826438004835
1148,77.72587115044489
1149,58.648264380048349
1151,525.4971773398102
1152,456.0
1153,27360.0
1371,77.72580569157329
1372,0.0
1373,58.648264380048349
1374,0.0
2,1, 1,21, 0, 1,24.00,25.00,WinterDesignDay
631,21.000144706811509
632,21.000413576004524
633,21.000338717664389
634,21.00051040522606
635,32.093006807016617
954,2769.194801074791
955,166151.68806448746
992,3952.0883572266454
993,237125.3014335987
1019,958.8051989252092
1131,0.0
1132,60.0
1133,0.0
1134,0.0
1135,0.0
1136,0.0
1137,0.0
1138,0.0
1139,0.0
1140,0.0
1141,0.0
1142,0.0
1143,0.0
1144,5.265121671982342e-12
1145,0.0
1146,0.0
1147,57.95207988281933
1148,78.20549081323611
1149,57.952079882819329
1151,515.7795439732948
1152,456.0
1153,27360.0
1371,78.20542550270487
1372,0.0
1373,57.952079882819329
1374,0.0
2,1, 1,21, 0, 1,25.00,26.00,WinterDesignDay
631,21.000151830724364
632,21.000414470705935
633,21.00033926875225
634,21.00051126638809
635,32.09285995355938
954,2769.194801074791
955,166151.68806448746
992,3944.932006470768
993,236695.9203882461
1019,958.8051989252092
1131,0.0
1132,60.0
1133,0.0
1134,0.0
1135,0.0
1136,0.0
1137,0.0
1138,0.0
1139,0.0
1140,0.0
1141,0.0
1142,0.0
1143,0.0
1144,0.0
1145,0.0
1146,0.0
1147,57.268769402065498
1148,78.68421372802492
1149,57.268769402065498
1151,506.2417055639679
1152,456.0
1153,27360.0
1371,78.68414856548373
1372,0.0
1373,57.268769402065498
1374,0.0
2,1, 1,21, 0, 1,26.00,27.00,WinterDesignDay
631,21.00015784136699
632,21.00041554919183
633,21.000339918643346
634,21.00051225274471
635,32.0926959629099
954,2769.194801074791
955,166151.68806448746
992,3937.788816027001
993,236267.32896162003
1019,958.8051989252092
1131,0.0
1132,60.0
1133,0.0
1134,0.0
1135,0.0
1136,0.0
1137,0.0
1138,0.0
1139,0.0
1140,0.0
1141,0.0
1142,0.0
1143,0.0
1144,5.265121671982342e-12
1145,0.0
1146,0.0
1147,56.59809474346084
1148,79.16204166685994
1149,56.598094743460837
1151,496.8801583249796
1152,456.0
1153,27360.0
1371,79.16197665193528
1372,0.0
1373,56.598094743460837
1374,0.0
2,1, 1,21, 0, 1,27.00,28.00,WinterDesignDay
631,21.000171285934269
632,21.000416806372856
633,21.000340664414229
634,21.000477464052119
635,32.09251580042815
954,2769.194801074791
955,166151.68806448746
992,3930.6587667455748
993,235839.52600473449
1019,958.8051989252092
1131,0.0
1132,60.0
1133,0.0
1134,0.0
1135,0.0
1136,0.0
1137,0.0
1138,0.0
1139,0.0
1140,0.0
1141,0.0
1142,0.0
1143,0.0
1144,5.265121671982342e-12
1145,0.0
1146,0.0
1147,55.93982222640447
1148,79.63897642200367
1149,55.939822226404469
1151,487.6918179044897
1152,456.0
1153,27360.0
1371,79.63891155431222
1372,0.0
1373,55.939822226404469
1374,0.0
2,1, 1,21, 0, 1,28.00,29.00,WinterDesignDay
631,21.000176249782098
632,21.00041823769152
633,21.00034150089506
634,21.000478871576328
635,32.09232025299971
954,2769.194801074791
955,166151.68806448746
992,3923.541844198274
993,235412.5106518964
1019,958.8051989252092
1131,0.0
1132,60.0
1133,0.0
1134,0.0
1135,0.0
1136,0.0
1137,0.0
1138,0.0
1139,0.0
1140,0.0
1141,0.0
1142,0.0
1143,0.0
1144,5.265121671982342e-12
1145,0.0
1146,0.0
1147,55.29372264954103
1148,80.11501982320482
1149,55.293722649541027
1151,478.67340207501356
1152,456.0
1153,27360.0
1371,80.114955507351
1372,0.0
1373,55.293722649541027
1374,0.0
2,1, 1,21, 0, 1,29.00,30.00,WinterDesignDay
631,21.000189202346744
632,21.000419830652107
633,21.000342420439613
634,21.00048055272539
635,32.092110158441567
954,2769.194801074791
955,166151.68806448746
992,3916.438003338617
993,234986.280200317
1019,958.8051989252092
1131,0.0
1132,60.0
1133,0.0
1134,0.0
1135,0.0
1136,0.0
1137,0.0
1138,0.0
1139,0.0
1140,0.0
1141,0.0
1142,0.0
1143,0.0
1144,5.265121671982342e-12
1145,0.0
1146,0.0
1147,54.659570755585878
1148,80.59017559545028
1149,54.65957075558587
1151,469.82165368141269
1152,456.0
1153,27360.0
1371,80.59011268638133
1372,0.0
1373,54.65957075558587
1374,0.0
2,1, 1,21, 0, 1,30.00,31.00,WinterDesignDay
631,21.000193088072778
632,21.00042156962756
633,21.000343412810744
634,21.000482710474189
635,32.09188649611131
954,2769.194801074791
955,166151.68806448746
992,3909.347142446514
993,234560.82854679088
1019,958.8051989252092
1131,0.0
1132,60.0
1133,0.0
1134,0.0
1135,0.0
1136,0.0
1137,0.0
1138,0.0
1139,0.0
1140,0.0
1141,0.0
1142,0.0
1143,0.0
1144,0.0
1145,0.0
1146,0.0
1147,54.037145757234117
1148,81.06445129420891
1149,54.037145757234117
1151,461.1337047295117
1152,456.0
1153,27360.0
1371,81.06438852209966
1372,0.0
1373,54.037145757234117
1374,0.0
2,1, 1,21, 0, 1,31.00,32.00,WinterDesignDay
631,21.000205675979875
632,21.000423440191609
633,21.000344465434656
634,21.000484970816296
635,32.09164948258288
954,2769.194801074791
955,166151.68806448746
992,3902.269230123003
993,234136.15380738019
1019,958.8051989252092
1131,0.0
1132,60.0
1133,0.0
1134,0.0
1135,0.0
1136,0.0
1137,0.0
1138,0.0
1139,0.0
1140,0.0
1141,0.0
1142,0.0
1143,0.0
1144,0.0
1145,0.0
1146,0.0
1147,53.42623063456244
1148,81.53784988317082
1149,53.42623063456244
1151,452.6063048019569
1152,456.0
1153,27360.0
1371,81.53778724656644
1372,0.0
1373,53.42623063456244
1374,0.0
2,1, 1,21, 0, 1,32.00,33.00,WinterDesignDay
631,21.000208369782706
632,21.000425417480458
633,21.000325779537897
634,21.000487356193749
635,32.091399436434269
954,2769.194801074791
955,166151.68806448746
992,3895.204227815644
993,233712.25366893866
1019,958.8051989252092
1131,0.0
1132,60.0
1133,0.0
1134,0.0
1135,0.0
1136,0.0
1137,0.0
1138,0.0
1139,0.0
1140,0.0
1141,0.0
1142,0.0
1143,0.0
1144,0.0
1145,0.0
1146,0.0
1147,52.826612709334778
1148,82.01037416728144
1149,52.826612709334778
1151,444.2367143869083
1152,456.0
1153,27360.0
1371,82.01031166536129
1372,0.0
1373,52.826612709334778
1374,0.0
2,1, 1,21, 0, 1,33.00,34.00,WinterDesignDay
631,21.000220732156995
632,21.000427474790877
633,21.000327388772307
634,21.000489831572027
635,32.091137132928327
954,2769.194801074791
955,166151.68806448746
992,3888.152107314191
993,233289.1264388515
1019,958.8051989252092
1131,0.0
1132,60.0
1133,0.0
1134,0.0
1135,0.0
1136,0.0
1137,0.0
1138,0.0
1139,0.0
1140,0.0
1141,0.0
1142,0.0
1143,0.0
1144,0.0
1145,0.0
1146,0.0
1147,52.23808289225376
1148,82.48202634279609
1149,52.23808289225376
1151,436.0217763569621
1152,456.0
1153,27360.0
1371,82.4819639750128
1372,0.0
1373,52.23808289225376
1374,0.0
2,1, 1,21, 0, 1,34.00,35.00,WinterDesignDay
631,21.000222000608035
632,21.000429586960434
633,21.000329010540175
634,21.000492366787264
635,32.090863148349949
954,2769.194801074791
955,166151.68806448746
992,3881.1128500996999
993,232866.77100598199
1019,958.8051989252092
1131,0.0
1132,60.0
1133,0.0
1134,0.0
1135,0.0
1136,0.0
1137,0.0
1138,0.0
1139,0.0
1140,0.0
1141,0.0
1142,0.0
1143,0.0
1144,0.0
1145,0.0
1146,0.0
1147,51.66043632222522
1148,82.95280833353421
1149,51.66043632222522
1151,427.9588809578534
1152,456.0
1153,27360.0
1371,82.95274609946235
1372,0.0
1373,51.66043632222522
1374,0.0
2,1, 1,21, 0, 1,35.00,36.00,WinterDesignDay
631,21.000234236046805
632,21.000431722988674
633,21.00033082352773
634,21.000494924036013
635,32.09057810271409
954,2769.194801074791
955,166151.68806448746
992,3874.0864369750795
993,232445.18621850477
1019,958.8051989252092
1131,0.0
1132,60.0
1133,0.0
1134,0.0
1135,0.0
1136,0.0
1137,0.0
1138,0.0
1139,0.0
1140,0.0
1141,0.0
1142,0.0
1143,0.0
1144,5.265121671982342e-12
1145,0.0
1146,0.0
1147,51.09347154248285
1148,83.42272194058639
1149,51.093471542482848
1151,420.0449535839347
1152,456.0
1153,27360.0
1371,83.42265983985513
1372,0.0
1373,51.093471542482848
1374,0.0
2,1, 1,21, 0, 1,36.00,37.00,WinterDesignDay
631,21.000233743559887
632,21.000433852211875
633,21.000332588937625
634,21.000497466114106
635,32.09028276350686
954,2769.194801074791
955,166151.68806448746
992,3867.0728500788115
993,232024.37100472867
1019,958.8051989252092
1131,0.0
1132,60.0
1133,0.0
1134,0.0
1135,0.0
1136,0.0
1137,0.0
1138,0.0
1139,0.0
1140,0.0
1141,0.0
1142,0.0
1143,0.0
1144,5.265121671982342e-12
1145,0.0
1146,0.0
1147,50.536991229520747
1148,83.89176890890372
1149,50.53699122952074
1151,412.277518723685
1152,456.0
1153,27360.0
1371,83.89170694116689
1372,0.0
1373,50.53699122952074
1374,0.0
2,1, 1,21, 0, 1,37.00,38.00,WinterDesignDay
631,21.000245976767727
632,21.000435949344078
633,21.000334312901204
634,21.000499962179025
635,32.089977069583238
954,2769.194801074791
955,166151.68806448746
992,3860.072073715093
993,231604.3244229056
1019,958.8051989252092
1131,0.0
1132,60.0
1133,0.0
1134,0.0
1135,0.0
1136,0.0
1137,0.0
1138,0.0
1139,0.0
1140,0.0
1141,0.0
1142,0.0
1143,0.0
1144,5.265121671982342e-12
1145,0.0
1146,0.0
1147,49.990801270550857
1148,84.3599509569287
1149,49.99080127055085
1151,404.65357081059298
1152,456.0
1153,27360.0
1371,84.35988912185136
1372,0.0
1373,49.99080127055085
1374,0.0
2,1, 1,21, 0, 1,38.00,39.00,WinterDesignDay
631,21.000257395963819
632,21.000437984411496
633,21.000335969043844
634,21.00050237628392
635,32.08966108676444
954,2769.194801074791
955,166151.68806448746
992,3853.084082150662
993,231185.04492903973
1019,958.8051989252092
1131,0.0
1132,60.0
1133,0.0
1134,0.0
1135,0.0
1136,0.0
1137,0.0
1138,0.0
1139,0.0
1140,0.0
1141,0.0
1142,0.0
1143,0.0
1144,5.265121671982342e-12
1145,0.0
1146,0.0
1147,49.45471161297921
1148,84.82726978964992
1149,49.4547116129792
1151,397.17077511977626
1152,456.0
1153,27360.0
1371,84.82720808690269
1372,0.0
1373,49.4547116129792
1374,0.0
2,1, 1,21, 0, 1,39.00,40.00,WinterDesignDay
631,21.000255640146006
632,21.000405990601114
633,21.000337536119689
634,21.00050467738438
635,32.08933540145742
954,2769.194801074791
955,166151.68806448746
992,3846.1088511659675
993,230766.53106995807
1019,958.8051989252092
1131,0.0
1132,60.0
1133,0.0
1134,0.0
1135,0.0
1136,0.0
1137,0.0
1138,0.0
1139,0.0
1140,0.0
1141,0.0
1142,0.0
1143,0.0
1144,0.0
1145,0.0
1146,0.0
1147,48.92853546826565
1148,85.29372711520516
1149,48.92853546826565
1151,389.82617921609735
1152,456.0
1153,27360.0
1371,85.29366352713204
1372,0.0
1373,48.92853546826565
1374,0.0
2,1, 1,21, 0, 1,40.00,41.00,WinterDesignDay
631,21.000267115230107
632,21.000408456175547
633,21.00033899627454
634,21.000506843202197
635,32.08900045800668
954,2769.194801074791
955,166151.68806448746
992,3839.1464932828509
993,230348.78959697105
1019,958.8051989252092
1131,0.0
1132,60.0
1133,0.0
1134,0.0
1135,0.0
1136,0.0
1137,0.0
1138,0.0
1139,0.0
1140,0.0
1141,0.0
1142,0.0
1143,0.0
1144,5.265121671982342e-12
1145,0.0
1146,0.0
1147,48.41208927336188
1148,85.75931591870182
1149,48.41208927336187
1151,382.6174095905351
1152,456.0
1153,27360.0
1371,85.75925129039736
1372,0.0
1373,48.41208927336187
1374,0.0
2,1, 1,21, 0, 1,41.00,42.00,WinterDesignDay
631,21.00026232378422
632,21.000410987392124
633,21.00034033623644
634,21.000508853207369
635,32.08865675940307
954,2769.194801074791
955,166151.68806448746
992,3832.1970874619998
993,229931.82524771998
1019,958.8051989252092
1131,0.0
1132,60.0
1133,0.0
1134,0.0
1135,0.0
1136,0.0
1137,0.0
1138,0.0
1139,0.0
1140,0.0
1141,0.0
1142,0.0
1143,0.0
1144,0.0
1145,0.0
1146,0.0
1147,47.90519334793892
1148,86.22403131166215
1149,47.90519334793892
1151,375.54212077505749
1152,456.0
1153,27360.0
1371,86.223966833184
1372,0.0
1373,47.90519334793892
1374,0.0
2,1, 1,21, 0, 1,42.00,43.00,WinterDesignDay
631,21.000274013432397
632,21.000413590839128
633,21.00034154746938
634,21.00051069381977
635,32.088304953483369
954,2769.194801074791
955,166151.68806448746
992,3825.2606489774236
993,229515.63893864543
1019,958.8051989252092
1131,0.0
1132,60.0
1133,0.0
1134,0.0
1135,0.0
1136,0.0
1137,0.0
1138,0.0
1139,0.0
1140,0.0
1141,0.0
1142,0.0
1143,0.0
1144,1.0530243343964685e-11
1145,0.0