Program Version,EnergyPlus, Version 9.2.0-921312fa1d, YMD=2020.05.06 10:33
1,5,Environment Title[],Latitude[deg],Longitude[deg],Time Zone[],Elevation[m]
2,8,Day of Simulation[],Month[],Day of Month[],DST Indicator[1=yes 0=no],Hour[],StartMinute[],EndMinute[],DayType
3,5,Cumulative Day of Simulation[],Month[],Day of Month[],DST Indicator[1=yes 0=no],DayType  ! When Daily Meters Requested
4,2,Cumulative Days of Simulation[],Month[]  ! When Monthly Meters Requested
5,1,Cumulative Days of Simulation[] ! When Run Period Meters Requested
6,1,Calendar Year of Simulation[] ! When Annual Meters Requested
9,1,Electricity:Facility [J] !Hourly
1059,1,ElectricitySurplusSold:Facility [J] !Hourly
1340,1,Electricity:Plant [J] !Hourly
1157,1,Electricity:HVAC [J] !Hourly
21,1,Electricity:Building [J] !Hourly
1008,1,Cogeneration:Gas [J] !Hourly
957,1,ElectricityProduced:Facility [J] !Hourly
End of Data Dictionary
1,NEWARK ANN HTG 99.6% CONDNS DB,  41.98, -87.92,  -6.00, 201.00
2,1, 1,21, 0, 1, 0.00,60.00,WinterDesignDay
9,16550574.911331969
21,9990847.998000002
957,14308334.437007208
1008,53239126.17898845
1059,1956506.9151280474
1157,1567431.2650569634
1340,301878.6882750013
2,1, 1,21, 0, 2, 0.00,60.00,WinterDesignDay
9,16761305.739254745
21,9990847.998000002
957,17565567.725677018
1008,69211909.58678636
1059,4345003.460703619
1157,1720197.4564279244
1340,359843.32482682258
2,1, 1,21, 0, 3, 0.00,60.00,WinterDesignDay
9,16575570.929701344
21,9990847.998000002
957,23249988.556891905
1008,91561406.35307364
1059,8568231.095770549
1157,1460866.1717996738
1340,433439.7999016679
2,1, 1,21, 0, 4, 0.00,60.00,WinterDesignDay
9,16526395.363897182
21,9990847.998000002
957,23880790.038066053
1008,94352670.18555148
1059,9051926.007299478
1157,1403399.684344442
1340,441730.7215527464
2,1, 1,21, 0, 5, 0.00,60.00,WinterDesignDay
9,16530446.377581593
21,9990847.998000002
957,26854488.855184989
1008,105713371.4088005
1059,11286171.841740687
1157,1374241.252429096
1340,474940.16715249608
2,1, 1,21, 0, 6, 0.00,60.00,WinterDesignDay
9,16516202.717744997
21,9990847.998000002
957,24842300.083994289
1008,98299938.0555803
1059,9854572.110834547
1157,1393207.1471188188
1340,441730.61262618066
2,1, 1,21, 0, 7, 0.00,60.00,WinterDesignDay
9,16527305.337317761
21,9990847.998000002
957,23882664.17507813
1008,94359188.84189783
1059,9044949.20522987
1157,1404309.702117392
1340,441730.6772003654
2,1, 1,21, 0, 8, 0.00,60.00,WinterDesignDay
9,16353606.147922853
21,9990847.998000002
957,24871671.25495179
1008,97464611.70036802
1059,9889632.4652973
1157,1385643.6562193623
1340,450028.24970349328
2,1, 1,21, 0, 9, 0.00,60.00,WinterDesignDay
9,16284568.744947188
21,9990847.998000002
957,26492509.126911776
1008,105076435.83361589
1059,11277334.503863726
1157,1379828.675861881
1340,462495.67108531048
2,1, 1,21, 0,10, 0.00,60.00,WinterDesignDay
9,16284994.532785267
21,9990847.998000002
957,23549723.976913059
1008,92888959.47695704
1059,8940837.935968424
1157,1405166.304952152
1340,437583.82983312135
2,1, 1,21, 0,11, 0.00,60.00,WinterDesignDay
9,16267933.303491576
21,9990847.998000002
957,24213297.60445426
1008,94867318.01483839
1059,9464263.534639586
1157,1383958.2868579997
1340,441730.61863357367
2,1, 1,21, 0,12, 0.00,60.00,WinterDesignDay
9,16289412.950228312
21,9990847.998000002
957,27149316.99075318
1008,107667830.11768122
1059,11778142.329795788
1157,1376375.219240687
1340,470793.33298761697
2,1, 1,21, 0,13, 0.00,60.00,WinterDesignDay
9,17119344.03018982
21,9990847.998000002
957,24920368.059031909
1008,100504337.8851208
1059,9346955.492809529
1157,2206313.180052245
1340,470786.45213757376
2,1, 1,21, 0,14, 0.00,60.00,WinterDesignDay
9,16328372.706460193
21,9990847.998000002
957,28470027.572110524
1008,112574248.25178918
1059,12755372.713925623
1157,1402890.4672411192
1340,483237.84121907429
2,1, 1,21, 0,15, 0.00,60.00,WinterDesignDay
9,16311218.322714644
21,9990847.998000002
957,23881681.537919377
1008,94354902.23618044
1059,9193325.964095807
1157,1427243.1903067104
1340,441730.7344079369
2,1, 1,21, 0,16, 0.00,60.00,WinterDesignDay
9,16276927.533985492
21,9990847.998000002
957,24213829.581497488
1008,95822880.53797087
1059,9461955.590696576
1157,1388805.5913710802
1340,445877.54461441448
2,1, 1,21, 0,17, 0.00,60.00,WinterDesignDay
9,16358939.820035542
21,9990847.998000002
957,27175742.215780878
1008,106928520.16723812
1059,11661424.161121268
1157,1390130.6674015714
1340,470793.29063397066
2,1, 1,21, 0,18, 0.00,60.00,WinterDesignDay
9,16525289.883218632
21,9990847.998000002
957,24185332.464399805
1008,95602367.77787759
1059,9351186.480970674
1157,1402294.1707855685
1340,441730.75443306626
2,1, 1,21, 0,19, 0.00,60.00,WinterDesignDay
9,16523031.938252908
21,9990847.998000002
957,23880364.262572938
1008,94349006.47232087
1059,9041705.36787469
1157,1400036.2535757283
1340,441730.7266771725
2,1, 1,21, 0,20, 0.00,60.00,WinterDesignDay
9,16516099.933897179
21,9990847.998000002
957,25531300.95390759
1008,100278665.5184786
1059,10295231.377201645
1157,1376509.196539164
1340,458325.7793580144
2,1, 1,21, 0,21, 0.00,60.00,WinterDesignDay
9,16520383.398848448
21,9990847.998000002
957,25832907.14998485
1008,102264315.72455724
1059,10597587.815138683
1157,1384920.3166341624
1340,454198.1242142822
2,1, 1,21, 0,22, 0.00,60.00,WinterDesignDay
9,16514539.926570077
21,9990847.998000002
957,23550881.48017903
1008,92892990.71589296
1059,8799685.780990839
1157,1395691.1906885619
1340,437583.77788151279
2,1, 1,21, 0,23, 0.00,60.00,WinterDesignDay
9,16522667.178504978
21,9990847.998000002
957,26191387.136894369
1008,102886196.61462039
1059,10790443.622095894
1157,1374764.2704828806
1340,466637.95002209758
2,1, 1,21, 0,24, 0.00,60.00,WinterDesignDay
9,16510847.02053822
21,9990847.998000002
957,24842534.912469869
1008,98196712.38043034
1059,9854350.412557578
1157,1387843.0284795317
1340,441739.03405869056
1,NEWARK ANN CLG .4% CONDNS DB=>MWB,  41.98, -87.92,  -6.00, 201.00
2,1, 7,21, 0, 1, 0.00,60.00,SummerDesignDay
9,61489251.6387857
21,9990847.998000002
957,13361189.831568625
1008,52455977.54521192
1059,0.0
1157,46482098.16544223
1340,325888.5153434677
2,1, 7,21, 0, 2, 0.00,60.00,SummerDesignDay
9,60524277.88586995
21,9990847.998000002
957,17438820.796563798
1008,76935077.82474856
1059,0.0
1157,45384725.792039539
1340,458287.1358303867
2,1, 7,21, 0, 3, 0.00,60.00,SummerDesignDay
9,59520835.88816793
21,9990847.998000002
957,17986061.250083068
1008,80537382.04540807
1059,0.0
1157,44364659.32145973
1340,474911.60870818878
2,1, 7,21, 0, 4, 0.00,60.00,SummerDesignDay
9,58561448.69482911
21,9990847.998000002
957,16812194.574768526
1008,74361897.03435722
1059,0.0
1157,43446828.537220869
1340,433355.199608238
2,1, 7,21, 0, 5, 0.00,60.00,SummerDesignDay
9,57651271.08401094
21,9990847.998000002
957,15676869.862761215
1008,68218273.13163749
1059,0.0
1157,42661678.36752387
1340,395968.6304870649
2,1, 7,21, 0, 6, 0.00,60.00,SummerDesignDay
9,59377600.43064484
21,9990847.998000002
957,15393798.643459849
1008,65386116.49717461
1059,0.0
1157,44543534.208295438
1340,391821.824349445
2,1, 7,21, 0, 7, 0.00,60.00,SummerDesignDay
9,64165757.13541853
21,9990847.998000002
957,15086912.609753328
1008,63906390.911624949
1059,0.0
1157,49344141.14015543
1340,379371.5972630937
2,1, 7,21, 0, 8, 0.00,60.00,SummerDesignDay
9,69266439.21246952
21,9990847.998000002
957,15586222.531522308
1008,67128806.48536927
1059,0.0
1157,54432363.5759981
1340,391831.23847143407
2,1, 7,21, 0, 9, 0.00,60.00,SummerDesignDay
9,74410118.89796007
21,9990847.998000002
957,15119065.253422736
1008,63907490.01658354
1059,0.0
1157,59580194.90704704
1340,387679.5929130025
2,1, 7,21, 0,10, 0.00,60.00,SummerDesignDay
9,78855904.45599881
21,9990847.998000002
957,15053778.102099315
1008,63631205.24028283
1059,0.0
1157,64034292.33590148
1340,379367.7220973518
2,1, 7,21, 0,11, 0.00,60.00,SummerDesignDay
9,82276004.12349497
21,9990847.998000002
957,15035037.334912574
1008,63462928.65585554
1059,0.0
1157,67454385.844006
1340,379373.88148895619
2,1, 7,21, 0,12, 0.00,60.00,SummerDesignDay
9,85053433.6537002
21,9990847.998000002
957,15062498.237927648
1008,63684276.14472543
1059,0.0
1157,70231814.66869836
1340,379374.5870018354
2,1, 7,21, 0,13, 0.00,60.00,SummerDesignDay
9,84818006.41074373
21,9990847.998000002
957,15034824.925247375
1008,64656632.925533059
1059,0.0
1157,69992233.74179587
1340,383528.2709478704
2,1, 7,21, 0,14, 0.00,60.00,SummerDesignDay
9,91551850.91331853
21,9990847.998000002
957,15569808.382117827
1008,65749631.432611528
1059,0.0
1157,76721927.08548866
1340,387679.4298298595
2,1, 7,21, 0,15, 0.00,60.00,SummerDesignDay
9,93765582.07298044
21,9990847.998000002
957,15086966.788578375
1008,63664386.52281172
1059,0.0
1157,78939809.26315597
1340,383528.41182451907
2,1, 7,21, 0,16, 0.00,60.00,SummerDesignDay
9,94933428.64982048
21,9990847.998000002
957,15055828.616829006
1008,63638302.4261002
1059,0.0
1157,80107660.85691886
1340,383523.3949016984
2,1, 7,21, 0,17, 0.00,60.00,SummerDesignDay
9,94744173.5661767
21,9990847.998000002
957,15029532.969359717
1008,63425386.12429888
1059,0.0
1157,79922556.415679
1340,379372.75249773156
2,1, 7,21, 0,18, 0.00,60.00,SummerDesignDay
9,92112194.90038036
21,9990847.998000002
957,15038680.055947654
1008,63480463.02171814
1059,0.0
1157,77290576.54935222
1340,379373.9530280699
2,1, 7,21, 0,19, 0.00,60.00,SummerDesignDay
9,84628390.56014209
21,9990847.998000002
957,15055366.397456002
1008,63635178.54123906
1059,0.0
1157,69806771.3941563
1340,379374.7679857707
2,1, 7,21, 0,20, 0.00,60.00,SummerDesignDay
9,75213936.71897513
21,9990847.998000002
957,15028124.432178889
1008,64606174.996334727
1059,0.0
1157,60216865.79491689
1340,383528.45805822967
2,1, 7,21, 0,21, 0.00,60.00,SummerDesignDay
9,70864366.25947021
21,9990847.998000002
957,15367099.51512559
1008,64830446.91587274
1059,0.0
1157,55799573.206311117
1340,383528.09515909556
2,1, 7,21, 0,22, 0.00,60.00,SummerDesignDay
9,67868703.11864382
21,9990847.998000002
957,15291200.684690547
1008,64599384.65345917
1059,0.0
1157,52799758.69646115
1340,387679.4641826558
2,1, 7,21, 0,23, 0.00,60.00,SummerDesignDay
9,65463894.797495108
21,9990847.998000002
957,15033780.074831102
1008,63446367.56528409
1059,0.0
1157,50399101.48430938
1340,383528.35518570846
2,1, 7,21, 0,24, 0.00,60.00,SummerDesignDay
9,63487600.015406187
21,9990847.998000002
957,15038207.505518368
1008,63477093.50712657
1059,0.0
1157,48426963.29810597
1340,379371.7593001999
End of Data
 Number of Records Written=         336
