 VARIABLES       =                 X                 Y                 Z              ROCK              PRES              TEMP             SAT_G             SAT_L         X_WATER_G           X_AIR_G         X_WATER_L           X_AIR_L             REL_G             REL_L           PCAP_GL             DEN_G             DEN_L               POR
 ZONE T=" 0.9300000E+03 SEC"  I =        9 J =        0 K =       30
                    0.37500000000E-001  0.00000000000E+000 -0.15000000000E+001                   2  0.99130075638E+005  0.61368247286E+001  0.49998038758E+000  0.50001961242E+000  0.59451250870E-002  0.99405487491E+000  0.99998421698E+000  0.15783019325E-004  0.18747548538E+000  0.61124479534E-001  0.00000000000E+000  0.12318305545E+001  0.10000007923E+004  0.10000286308E-002
                    0.37500000000E-001  0.00000000000E+000 -0.27500000000E+001                   2  0.10028521149E+006  0.90815603230E+001  0.49982264589E+000  0.50017735411E+000  0.71914637460E-002  0.99280853625E+000  0.99998406507E+000  0.15934927932E-004  0.18727838108E+000  0.61199793464E-001  0.00000000000E+000  0.12322554314E+001  0.99986318868E+003  0.10000288043E-002
                    0.37500000000E-001  0.00000000000E+000 -0.47500000000E+001                   2  0.10140476335E+006  0.11579446478E+002  0.49979666591E+000  0.50020333409E+000  0.84106460917E-002  0.99158935391E+000  0.99998391879E+000  0.16081213761E-004  0.18724592929E+000  0.61212203872E-001  0.00000000000E+000  0.12341738109E+001  0.99964673551E+003  0.10000217572E-002
                    0.37500000000E-001  0.00000000000E+000 -0.85000000000E+001                   2  0.10279476995E+006  0.13560257503E+002  0.49972321081E+000  0.50027678919E+000  0.94554941318E-002  0.99054450587E+000  0.99998372577E+000  0.16274230407E-004  0.18715419307E+000  0.61247302285E-001  0.00000000000E+000  0.12416666272E+001  0.99941483099E+003  0.10000147850E-002
                    0.37500000000E-001  0.00000000000E+000 -0.13500000000E+002                   2  0.10387776769E+006  0.12343901234E+002  0.49986162545E+000  0.50013837455E+000  0.86363742778E-002  0.99136362572E+000  0.99998353259E+000  0.16467405502E-004  0.18732707669E+000  0.61181176579E-001  0.00000000000E+000  0.12607157219E+001  0.99956428703E+003  0.10000145120E-002
                    0.37500000000E-001  0.00000000000E+000 -0.18500000000E+002                   2  0.10603259972E+006  0.12684172159E+002  0.49993714907E+000  0.50006285093E+000  0.86522223469E-002  0.99134777765E+000  0.99998319142E+000  0.16808575521E-004  0.18742144559E+000  0.61145117333E-001  0.00000000000E+000  0.12853239029E+001  0.99952557404E+003  0.10000145166E-002
                    0.37500000000E-001  0.00000000000E+000 -0.23500000000E+002                   2  0.10932410233E+006  0.12497996012E+002  0.50006497042E+000  0.49993502958E+000  0.82879447876E-002  0.99171205521E+000  0.99998265947E+000  0.17340525814E-004  0.18758122292E+000  0.61084122163E-001  0.00000000000E+000  0.13263783846E+001  0.99954903548E+003  0.10000144276E-002
                    0.37500000000E-001  0.00000000000E+000 -0.28500000000E+002                   2  0.20714449729E+006  0.13827029109E+002  0.50172132237E+000  0.49827867763E+000  0.47609410537E-002  0.99523905895E+000  0.99996695665E+000  0.33043351497E-004  0.18965859736E+000  0.60297581155E-001  0.00000000000E+000  0.25068830136E+001  0.99942811027E+003  0.10010746523E-002
                    0.37500000000E-001  0.00000000000E+000 -0.33500000000E+002                   2  0.13435753579E+006  0.13683252383E+002  0.50049240485E+000  0.49950759515E+000  0.72828794135E-002  0.99271712059E+000  0.99997865426E+000  0.21345741182E-004  0.18811607433E+000  0.60880464415E-001  0.00000000000E+000  0.16243470904E+001  0.99941338414E+003  0.10003517631E-002
                    0.37500000000E-001  0.00000000000E+000 -0.38500000000E+002                   2  0.17216567349E+006  0.13790308910E+002  0.50100070497E+000  0.49899929503E+000  0.57178613588E-002  0.99428213864E+000  0.99997257862E+000  0.27421379028E-004  0.18875322826E+000  0.60638897499E-001  0.00000000000E+000  0.20826279590E+001  0.99941675935E+003  0.10007362140E-002
                    0.37500000000E-001  0.00000000000E+000 -0.42250000000E+002                   2  0.19415591864E+006  0.14714039492E+002  0.50128902307E+000  0.49871097693E+000  0.53819644503E-002  0.99461803555E+000  0.99996905947E+000  0.30940529577E-004  0.18911517315E+000  0.60502175105E-001  0.00000000000E+000  0.23415755616E+001  0.99929830969E+003  0.10009486069E-002
                    0.37500000000E-001  0.00000000000E+000 -0.44250000000E+002                   2  0.20210043110E+006  0.13584122193E+002  0.50165076589E+000  0.49834923411E+000  0.48033460885E-002  0.99519665391E+000  0.99996776346E+000  0.32236537895E-004  0.18956984412E+000  0.60330940185E-001  0.00000000000E+000  0.24478483036E+001  0.99945792589E+003  0.10010399957E-002
                    0.37500000000E-001  0.00000000000E+000 -0.45500000000E+002                   2  0.20680153036E+006  0.12186876395E+002  0.50193697860E+000  0.49806302140E+000  0.42822227315E-002  0.99571777727E+000  0.99996698595E+000  0.33014047854E-004  0.18993001669E+000  0.60195699318E-001  0.00000000000E+000  0.25178458202E+001  0.99963028322E+003  0.10011014323E-002
                    0.37500000000E-001  0.00000000000E+000 -0.46500000000E+002                   2  0.21167670342E+006  0.12195897364E+002  0.50210482032E+000  0.49789517968E+000  0.41858404973E-002  0.99581415950E+000  0.99996620244E+000  0.33797557185E-004  0.19014140880E+000  0.60116489921E-001  0.00000000000E+000  0.25772706616E+001  0.99963154885E+003  0.10011560163E-002
                    0.37500000000E-001  0.00000000000E+000 -0.47500000000E+002                   2  0.21684592222E+006  0.12224985434E+002  0.50230032660E+000  0.49769967340E+000  0.40936642912E-002  0.99590633571E+000  0.99996537197E+000  0.34628029663E-004  0.19038781015E+000  0.60024316997E-001  0.00000000000E+000  0.26400865708E+001  0.99963068320E+003  0.10012098998E-002
                    0.37500000000E-001  0.00000000000E+000 -0.48500000000E+002                   2  0.22206308886E+006  0.12256887547E+002  0.50248535394E+000  0.49751464606E+000  0.40056796933E-002  0.99599432031E+000  0.99996453383E+000  0.35466165684E-004  0.19062116963E+000  0.59937175760E-001  0.00000000000E+000  0.27034469361E+001  0.99962950855E+003  0.10012637816E-002
                    0.37500000000E-001  0.00000000000E+000 -0.49500000000E+002                   2  0.22712168101E+006  0.12285910757E+002  0.50265988303E+000  0.49734011697E+000  0.39237577289E-002  0.99607624227E+000  0.99996372115E+000  0.36278854242E-004  0.19084143565E+000  0.59855060145E-001  0.00000000000E+000  0.27648872497E+001  0.99962857362E+003  0.10013176649E-002
                    0.37500000000E-001  0.00000000000E+000 -0.50500000000E+002                   2  0.23123801627E+006  0.12304008884E+002  0.50283631034E+000  0.49716368966E+000  0.38583502244E-002  0.99614164978E+000  0.99996305975E+000  0.36940246963E-004  0.19106424244E+000  0.59772131621E-001  0.00000000000E+000  0.28149307381E+001  0.99962843466E+003  0.10013637521E-002
                    0.37500000000E-001  0.00000000000E+000 -0.51500000000E+002                   2  0.13136396842E+006  0.12258497781E+002  0.32171250045E-002  0.99678287500E+000  0.67834611448E-002  0.99321653886E+000  0.99997911307E+000  0.20886930755E-004  0.00000000000E+000  0.97206942138E+000  0.00000000000E+000  0.15965639325E+001  0.99958688004E+003  0.10001971789E-002
                    0.37500000000E-001  0.00000000000E+000 -0.52500000000E+002                   2  0.75920070590E+005  0.12277475388E+002  0.28047794512E-002  0.99719522055E+000  0.11787553225E-001  0.98821244677E+000  0.99998802563E+000  0.11974370176E-004  0.00000000000E+000  0.97499303766E+000  0.00000000000E+000  0.91987253206E+000  0.99955877739E+003  0.99951012993E-003
                    0.37500000000E-001  0.00000000000E+000 -0.53500000000E+002                   2  0.57713005059E+005  0.12306465814E+002  0.27935872948E-002  0.99720641271E+000  0.15571240068E-001  0.98442875993E+000  0.99999095276E+000  0.90472425043E-005  0.00000000000E+000  0.97507352875E+000  0.00000000000E+000  0.69760990797E+000  0.99954695973E+003  0.99922778323E-003
                    0.37500000000E-001  0.00000000000E+000 -0.54500000000E+002                   2  0.52923364265E+005  0.12335477129E+002  0.29787074600E-002  0.99702129254E+000  0.17027786879E-001  0.98297221312E+000  0.99999172311E+000  0.82768929754E-005  0.00000000000E+000  0.97375015088E+000  0.00000000000E+000  0.63909075920E+000  0.99954140893E+003  0.99907871724E-003
                    0.37500000000E-001  0.00000000000E+000 -0.55500000000E+002                   2  0.51650576373E+005  0.12365457752E+002  0.31666556111E-002  0.99683334439E+000  0.17486647811E-001  0.98251335219E+000  0.99999192816E+000  0.80718442782E-005  0.00000000000E+000  0.97242308756E+000  0.00000000000E+000  0.62348371474E+000  0.99953738183E+003  0.99896790259E-003
                    0.37500000000E-001  0.00000000000E+000 -0.56500000000E+002                   2  0.51011567649E+005  0.12424492866E+002  0.33632290998E-002  0.99663677090E+000  0.17777671502E-001  0.98222232850E+000  0.99999203177E+000  0.79682297443E-005  0.00000000000E+000  0.97105171489E+000  0.00000000000E+000  0.61553540743E+000  0.99953029104E+003  0.99886266952E-003
                    0.37500000000E-001  0.00000000000E+000 -0.57750000000E+002                   2  0.50693439158E+005  0.13926579855E+002  0.35187563235E-002  0.99648124368E+000  0.19758019736E-001  0.98024198026E+000  0.99999210679E+000  0.78932110855E-005  0.00000000000E+000  0.96997797388E+000  0.00000000000E+000  0.60777530890E+000  0.99934201256E+003  0.99882233696E-003
                    0.37500000000E-001  0.00000000000E+000 -0.59750000000E+002                   2  0.50812074234E+005  0.15176764248E+002  0.34867672851E-002  0.99651323271E+000  0.21392330015E-001  0.97860766998E+000  0.99999210922E+000  0.78907820211E-005  0.00000000000E+000  0.97019803771E+000  0.00000000000E+000  0.60596406393E+000  0.99916357743E+003  0.99865138660E-003
                    0.37500000000E-001  0.00000000000E+000 -0.63500000000E+002                   2  0.50383860357E+005  0.14259080893E+002  0.35791517651E-002  0.99642084823E+000  0.20319825476E-001  0.97968017452E+000  0.99999216212E+000  0.78378781079E-005  0.00000000000E+000  0.96956357414E+000  0.00000000000E+000  0.60316215994E+000  0.99929630815E+003  0.99828808855E-003
                    0.37500000000E-001  0.00000000000E+000 -0.68500000000E+002                   2  0.50845784808E+005  0.14368070339E+002  0.34955809067E-002  0.99650441909E+000  0.20277364758E-001  0.97972263524E+000  0.99999208972E+000  0.79102814277E-005  0.00000000000E+000  0.97013736575E+000  0.00000000000E+000  0.60847683294E+000  0.99928128480E+003  0.99780482298E-003
                    0.37500000000E-001  0.00000000000E+000 -0.76000000000E+002                   2  0.52478494199E+005  0.15244467677E+002  0.29012924042E-002  0.99709870760E+000  0.20796009078E-001  0.97920399092E+000  0.99999184256E+000  0.81574424384E-005  0.00000000000E+000  0.97430153751E+000  0.00000000000E+000  0.62591355726E+000  0.99915412784E+003  0.99708654349E-003
                    0.37500000000E-001  0.00000000000E+000 -0.86000000000E+002                   2  0.54575726584E+005  0.15388727142E+002  0.22734491783E-002  0.99772655082E+000  0.20175633146E-001  0.97982436685E+000  0.99999150803E+000  0.84919719882E-005  0.00000000000E+000  0.97888988011E+000  0.00000000000E+000  0.65084369348E+000  0.99913313278E+003  0.99613064433E-003
                    0.37500000000E-001  0.00000000000E+000 -0.93500000000E+002                   2  0.55847749765E+005  0.15401936910E+002  0.19566635678E-002  0.99804333643E+000  0.19727542190E-001  0.98027245781E+000  0.99999130379E+000  0.86962050785E-005  0.00000000000E+000  0.98129738151E+000  0.00000000000E+000  0.66616146568E+000  0.99913169645E+003  0.99541362989E-003
                    0.37500000000E-001  0.00000000000E+000 -0.97500000000E+002                   2  0.55151696675E+005  0.13953779807E+002  0.19932015109E-002  0.99800679849E+000  0.18175733161E-001  0.98182426684E+000  0.99999139060E+000  0.86094020236E-005  0.00000000000E+000  0.98101602163E+000  0.00000000000E+000  0.66179096003E+000  0.99934040980E+003  0.99501078053E-003
                    0.37500000000E-001  0.00000000000E+000 -0.10000000000E+003                   2  0.53718002818E+005  0.12132269638E+002  0.24622370265E-002  0.99753776297E+000  0.16548169042E-001  0.98345183096E+000  0.99999159231E+000  0.84076863117E-005  0.00000000000E+000  0.97748668730E+000  0.00000000000E+000  0.64933544044E+000  0.99956472533E+003  0.99472265733E-003
                    0.37500000000E-001  0.00000000000E+000 -0.10200000000E+003                   1  0.10394217346E+007  0.17611248043E+002  0.00000000000E+000  0.10000000000E+001  0.00000000000E+000  0.00000000000E+000  0.99999000000E+000  0.99999997474E-005  0.00000000000E+000  0.10000000000E+001  0.00000000000E+000  0.12442200452E+002  0.99921403038E+003  0.30131851150E+000
                    0.37500000000E-001  0.00000000000E+000 -0.10500000000E+003                   1  0.10462753516E+007  0.17756432793E+002  0.00000000000E+000  0.10000000000E+001  0.00000000000E+000  0.00000000000E+000  0.99999000000E+000  0.99999997474E-005  0.00000000000E+000  0.10000000000E+001  0.00000000000E+000  0.12517966252E+002  0.99919074798E+003  0.30125117539E+000
                    0.37500000000E-001  0.00000000000E+000 -0.11100000000E+003                   1  0.10589687938E+007  0.17880163292E+002  0.00000000000E+000  0.10000000000E+001  0.00000000000E+000  0.00000000000E+000  0.99999000000E+000  0.99999997474E-005  0.00000000000E+000  0.10000000000E+001  0.00000000000E+000  0.12664487631E+002  0.99917384442E+003  0.30110870546E+000
                    0.37500000000E-001  0.00000000000E+000 -0.12300000000E+003                   1  0.10938133874E+007  0.18128060099E+002  0.00000000000E+000  0.10000000000E+001  0.00000000000E+000  0.00000000000E+000  0.99999000000E+000  0.99999997475E-005  0.00000000000E+000  0.10000000000E+001  0.00000000000E+000  0.13070229289E+002  0.99914373532E+003  0.30085812469E+000
                    0.37500000000E-001  0.00000000000E+000 -0.14700000000E+003                   1  0.11749938034E+007  0.18628205920E+002  0.00000000000E+000  0.10000000000E+001  0.00000000000E+000  0.00000000000E+000  0.99999000000E+000  0.99999997474E-005  0.00000000000E+000  0.10000000000E+001  0.00000000000E+000  0.14016602966E+002  0.99908574856E+003  0.30039870990E+000
                    0.37500000000E-001  0.00000000000E+000 -0.19500000000E+003                   3  0.17239717465E+007  0.19625000000E+002  0.00000000000E+000  0.10000000000E+001  0.00000000000E+000  0.00000000000E+000  0.99999000000E+000  0.99999997474E-005  0.00000000000E+000  0.10000000000E+001  0.00000000000E+000  0.20499272522E+002  0.99913720004E+003  0.30063500999E+000
                    0.37500000000E-001  0.00000000000E+000 -0.50000000000E-005                   5  0.10132500000E+006  0.15000000000E+002  0.10000000000E+001  0.00000000000E+000  0.52499771120E-002  0.99475002289E+000  0.00000000000E+000  0.00000000000E+000  0.10000000000E+001  0.00000000000E+000  0.00000000000E+000  0.12208885817E+001  0.99921336741E+003  0.99000001000E+000
                    0.37500000000E-001  0.00000000000E+000 -0.25000000000E+000                   4  0.10168427273E+006  0.15012813934E+002  0.89206030659E+000  0.10793969341E+000  0.10508719719E-001  0.98949128028E+000  0.99998392888E+000  0.16071117527E-004  0.98015271189E+000  0.43964152106E-006 -0.17542934546E+006  0.12212874896E+001  0.99921163037E+003  0.30000001019E+000
                    0.37500000000E-001  0.00000000000E+000 -0.75000000000E+000                   4  0.10152748283E+006  0.14885000206E+002  0.89610577408E+000  0.10389422592E+000  0.10438152717E-001  0.98956184728E+000  0.99998395184E+000  0.16048162086E-004  0.99026466532E+000  0.51857586955E-007 -0.19005711004E+006  0.12199971919E+001  0.99923045142E+003  0.30000007028E+000
                    0.79290000000E-001  0.00000000000E+000 -0.25000000000E+000                   1  0.10138626407E+006  0.15009979007E+002  0.89664091286E+000  0.10335908714E+000  0.10537868631E-001  0.98946213137E+000  0.99998397674E+000  0.16023264434E-004  0.99160242988E+000  0.33281003479E-007 -0.19214386713E+006  0.12176988331E+001  0.99921191374E+003  0.30000001014E+000
                    0.79290000000E-001  0.00000000000E+000 -0.75000000000E+000                   1  0.10149966811E+006  0.14870983817E+002  0.89606760867E+000  0.10393239133E+000  0.10431537811E-001  0.98956846219E+000  0.99998395606E+000  0.16043936525E-004  0.99016925863E+000  0.53397416735E-007 -0.18990972587E+006  0.12197271601E+001  0.99923249818E+003  0.30000007039E+000
                    0.79290000000E-001  0.00000000000E+000 -0.15000000000E+001                   1  0.10166537931E+006  0.65511725968E+001  0.89298760240E+000  0.10701239760E+000  0.59650750970E-002  0.99403492490E+000  0.99998381384E+000  0.16186157727E-004  0.98247034707E+000  0.30286791995E-006 -0.17861313749E+006  0.12614487062E+001  0.99999067570E+003  0.30000003992E+000
                    0.79290000000E-001  0.00000000000E+000 -0.27500000000E+001                   1  0.10195418576E+006  0.93579155907E+001  0.89171002493E+000  0.10828997507E+000  0.72068709951E-002  0.99279312900E+000  0.99998380028E+000  0.16199719409E-004  0.97927727626E+000  0.50044945943E-006 -0.17425115462E+006  0.12515259786E+001  0.99984433437E+003  0.30000010091E+000
                    0.79290000000E-001  0.00000000000E+000 -0.47500000000E+001                   1  0.10242896873E+006  0.11745468379E+002  0.89071822274E+000  0.10928177726E+000  0.84185241467E-002  0.99158147585E+000  0.99998375657E+000  0.16243430858E-004  0.97679866232E+000  0.70247627969E-006 -0.17098553957E+006  0.12459068837E+001  0.99962972646E+003  0.30000019232E+000
                    0.79290000000E-001  0.00000000000E+000 -0.85000000000E+001                   1  0.10338747483E+006  0.13643040364E+002  0.88862192043E+000  0.11137807957E+000  0.94521007425E-002  0.99054789926E+000  0.99998363184E+000  0.16368155857E-004  0.97156051412E+000  0.12942795954E-005 -0.16440865439E+006  0.12484681008E+001  0.99940427258E+003  0.30000031471E+000
                    0.79290000000E-001  0.00000000000E+000 -0.13500000000E+002                   1  0.10500418597E+006  0.12518541051E+002  0.88117395697E+000  0.11882604303E+000  0.86424174281E-002  0.99135758257E+000  0.99998335419E+000  0.16645811206E-004  0.95296064951E+000  0.58670864860E-005 -0.14412689873E+006  0.12736029272E+001  0.99954461898E+003  0.30000049738E+000
                    0.79290000000E-001  0.00000000000E+000 -0.18500000000E+002                   1  0.10724157712E+006  0.12852648323E+002  0.86016375702E+000  0.13983624298E+000  0.86496930749E-002  0.99135030693E+000  0.99998299970E+000  0.17000295499E-004  0.90065018638E+000  0.55726743238E-004 -0.10470619729E+006  0.12992154066E+001  0.99950590745E+003  0.30000071071E+000
                    0.79290000000E-001  0.00000000000E+000 -0.23500000000E+002                   1  0.11083298919E+006  0.12687606677E+002  0.77376204636E+000  0.22623795364E+000  0.82774723703E-002  0.99172252763E+000  0.99998241984E+000  0.17580155844E-004  0.69164342722E+000  0.17976817341E-002 -0.43471181747E+005  0.13438016252E+001  0.99952740786E+003  0.30002014525E+000
                    0.79290000000E-001  0.00000000000E+000 -0.28500000000E+002                   1  0.22861527172E+006  0.13964777297E+002  0.15952110467E+000  0.84047889533E+000  0.43515240696E-002  0.99564847593E+000  0.99996350768E+000  0.36492320412E-004  0.79306494441E-003  0.45221624274E+000 -0.28459016044E+004  0.27660816232E+001  0.99941951129E+003  0.30038079632E+000
                    0.79290000000E-001  0.00000000000E+000 -0.33500000000E+002                   1  0.39476285713E+006  0.13837191320E+002  0.24804533432E-001  0.97519546657E+000  0.24964454733E-002  0.99750355453E+000  0.99993679901E+000  0.63200988434E-004  0.00000000000E+000  0.85770465598E+000 -0.78946058325E+003  0.47838370589E+001  0.99951393398E+003  0.30088043268E+000
                    0.79290000000E-001  0.00000000000E+000 -0.38500000000E+002                   1  0.51090667901E+006  0.13944090397E+002  0.19531939331E-001  0.98046806067E+000  0.19417275181E-002  0.99805827248E+000  0.99991813215E+000  0.81867850125E-004  0.00000000000E+000  0.88199117862E+000 -0.67999806711E+003  0.61910708215E+001  0.99955342097E+003  0.30122889737E+000
                    0.79290000000E-001  0.00000000000E+000 -0.42250000000E+002                   1  0.57229716891E+006  0.14798180998E+002  0.14994533626E-001  0.98500546637E+000  0.18318773198E-002  0.99816812268E+000  0.99990827906E+000  0.91720943244E-004  0.00000000000E+000  0.90421088491E+000 -0.57734942602E+003  0.69148797443E+001  0.99946106303E+003  0.30141307181E+000
                    0.79290000000E-001  0.00000000000E+000 -0.44250000000E+002                   1  0.60334024335E+006  0.13723512495E+002  0.12349429083E-001  0.98765057092E+000  0.16205196833E-002  0.99837948032E+000  0.99990327119E+000  0.96728813837E-004  0.00000000000E+000  0.91788158320E+000 -0.51239081712E+003  0.73182078789E+001  0.99962607023E+003  0.30150837993E+000
                    0.79290000000E-001  0.00000000000E+000 -0.45500000000E+002                   1  0.62242579671E+006  0.12394969975E+002  0.10792514979E-001  0.98920748502E+000  0.14399132644E-002  0.99856008674E+000  0.99990018251E+000  0.99817491063E-004  0.00000000000E+000  0.92623402856E+000 -0.47178466646E+003  0.75856607538E+001  0.99980086276E+003  0.30156588988E+000
                    0.79290000000E-001  0.00000000000E+000 -0.46500000000E+002                   1  0.63762878381E+006  0.12404148429E+002  0.98989544216E-002  0.99010104558E+000  0.14064014697E-002  0.99859359853E+000  0.99989773902E+000  0.10226098436E-003  0.00000000000E+000  0.93114680627E+000 -0.44750519301E+003  0.77708513681E+001  0.99980689945E+003  0.30161087115E+000
                    0.79290000000E-001  0.00000000000E+000 -0.47500000000E+002                   1  0.65281870251E+006  0.12433377475E+002  0.92714456920E-002  0.99072855431E+000  0.13762943719E-002  0.99862370563E+000  0.99989529793E+000  0.10470206740E-003  0.00000000000E+000  0.93465445880E+000 -0.42996615997E+003  0.79553033727E+001  0.99981058883E+003  0.30165655239E+000
                    0.79290000000E-001  0.00000000000E+000 -0.48500000000E+002                   1  0.66796646785E+006  0.12465032243E+002  0.88146438978E-002  0.99118535610E+000  0.13478620507E-002  0.99865213795E+000  0.99989286367E+000  0.10713633274E-003  0.00000000000E+000  0.93724009109E+000 -0.41691871200E+003  0.81391333578E+001  0.99981396083E+003  0.30170284355E+000
                    0.79290000000E-001  0.00000000000E+000 -0.49500000000E+002                   1  0.68296663928E+006  0.12494079521E+002  0.83349599244E-002  0.99166504008E+000  0.13207557658E-002  0.99867924423E+000  0.99989045309E+000  0.10954690940E-003  0.00000000000E+000  0.93998634044E+000 -0.40294206899E+003  0.83211999799E+001  0.99981755537E+003  0.30174393406E+000
                    0.79290000000E-001  0.00000000000E+000 -0.50500000000E+002                   1  0.69746265326E+006  0.12512071540E+002  0.41708253983E-002  0.99582917460E+000  0.12948147353E-002  0.99870518526E+000  0.99988812338E+000  0.11187661565E-003  0.00000000000E+000  0.96557357604E+000 -0.26476477515E+003  0.84974163363E+001  0.99982220594E+003  0.30178670408E+000
                    0.79290000000E-001  0.00000000000E+000 -0.51500000000E+002                   1  0.71133422192E+006  0.12500801649E+002  0.00000000000E+000  0.10000000000E+001  0.00000000000E+000  0.00000000000E+000  0.99997662666E+000  0.23373339509E-004  0.00000000000E+000  0.10000000000E+001  0.00000000000E+000  0.86668977207E+001  0.99983001242E+003  0.30181558258E+000
                    0.79290000000E-001  0.00000000000E+000 -0.52500000000E+002                   1  0.72506901990E+006  0.12519727385E+002  0.00000000000E+000  0.10000000000E+001  0.00000000000E+000  0.00000000000E+000  0.99998600490E+000  0.13995101328E-004  0.00000000000E+000  0.10000000000E+001  0.00000000000E+000  0.88337776671E+001  0.99983419407E+003  0.30183024234E+000
                    0.79290000000E-001  0.00000000000E+000 -0.53500000000E+002                   1  0.73837183127E+006  0.12548698123E+002  0.00000000000E+000  0.10000000000E+001  0.00000000000E+000  0.00000000000E+000  0.99998912485E+000  0.10875153329E-004  0.00000000000E+000  0.10000000000E+001  0.00000000000E+000  0.89950481437E+001  0.99983697844E+003  0.30184094215E+000
                    0.79290000000E-001  0.00000000000E+000 -0.54500000000E+002                   1  0.75124288734E+006  0.12577736753E+002  0.00000000000E+000  0.10000000000E+001  0.00000000000E+000  0.00000000000E+000  0.99998985313E+000  0.10146870263E-004  0.00000000000E+000  0.10000000000E+001  0.00000000000E+000  0.91510205548E+001  0.99983954042E+003  0.30185033231E+000
                    0.79290000000E-001  0.00000000000E+000 -0.55500000000E+002                   1  0.76369255546E+006  0.12607664164E+002  0.00000000000E+000  0.10000000000E+001  0.00000000000E+000  0.00000000000E+000  0.99998998080E+000  0.10019203975E-004  0.00000000000E+000  0.10000000000E+001  0.00000000000E+000  0.93017956879E+001  0.99984178692E+003  0.30185820263E+000
                    0.79290000000E-001  0.00000000000E+000 -0.56500000000E+002                   1  0.77573462826E+006  0.12666612898E+002  0.00000000000E+000  0.10000000000E+001  0.00000000000E+000  0.00000000000E+000  0.99998999761E+000  0.10002392513E-004  0.00000000000E+000  0.10000000000E+001  0.00000000000E+000  0.94465995533E+001  0.99984034932E+003  0.30186398304E+000
                    0.79290000000E-001  0.00000000000E+000 -0.57750000000E+002                   1  0.79028416073E+006  0.14087933953E+002  0.00000000000E+000  0.10000000000E+001  0.00000000000E+000  0.00000000000E+000  0.99998999987E+000  0.10000129759E-004  0.00000000000E+000  0.10000000000E+001  0.00000000000E+000  0.95756330002E+001  0.99966332688E+003  0.30187027464E+000
                    0.79290000000E-001  0.00000000000E+000 -0.59750000000E+002                   1  0.81241271829E+006  0.15273632617E+002  0.00000000000E+000  0.10000000000E+001  0.00000000000E+000  0.00000000000E+000  0.99999000000E+000  0.10000002431E-004  0.00000000000E+000  0.10000000000E+001  0.00000000000E+000  0.98029139971E+001  0.99950071262E+003  0.30187742708E+000
                    0.79290000000E-001  0.00000000000E+000 -0.63500000000E+002                   1  0.85051006483E+006  0.14506619021E+002  0.00000000000E+000  0.10000000000E+001  0.00000000000E+000  0.00000000000E+000  0.99999000000E+000  0.99999997020E-005  0.00000000000E+000  0.10000000000E+001  0.00000000000E+000  0.10290730385E+002  0.99963217215E+003  0.30188636378E+000
                    0.79290000000E-001  0.00000000000E+000 -0.68500000000E+002                   1  0.89303053932E+006  0.14615588323E+002  0.00000000000E+000  0.10000000000E+001  0.00000000000E+000  0.00000000000E+000  0.99999000000E+000  0.99999997039E-005  0.00000000000E+000  0.10000000000E+001  0.00000000000E+000  0.10801438109E+002  0.99963611041E+003  0.30186572088E+000
                    0.79290000000E-001  0.00000000000E+000 -0.76000000000E+002                   1  0.94609445019E+006  0.15418470946E+002  0.00000000000E+000  0.10000000000E+001  0.00000000000E+000  0.00000000000E+000  0.99999000000E+000  0.99999997078E-005  0.00000000000E+000  0.10000000000E+001  0.00000000000E+000  0.11411470154E+002  0.99954006685E+003  0.30179772667E+000
                    0.79290000000E-001  0.00000000000E+000 -0.86000000000E+002                   1  0.99369017682E+006  0.15568949824E+002  0.00000000000E+000  0.10000000000E+001  0.00000000000E+000  0.00000000000E+000  0.99999000000E+000  0.99999997155E-005  0.00000000000E+000  0.10000000000E+001  0.00000000000E+000  0.11979630511E+002  0.99953852521E+003  0.30165215832E+000
                    0.79290000000E-001  0.00000000000E+000 -0.93500000000E+002                   1  0.10177603831E+007  0.15606886151E+002  0.00000000000E+000  0.10000000000E+001  0.00000000000E+000  0.00000000000E+000  0.99999000000E+000  0.99999997196E-005  0.00000000000E+000  0.10000000000E+001  0.00000000000E+000  0.12268377005E+002  0.99954365093E+003  0.30150802386E+000
                    0.79290000000E-001  0.00000000000E+000 -0.97500000000E+002                   1  0.10285903200E+007  0.14295842540E+002  0.00000000000E+000  0.10000000000E+001  0.00000000000E+000  0.00000000000E+000  0.99999000000E+000  0.99999997182E-005  0.00000000000E+000  0.10000000000E+001  0.00000000000E+000  0.12456217345E+002  0.99974468558E+003  0.30141551839E+000
                    0.79290000000E-001  0.00000000000E+000 -0.10000000000E+003                   1  0.10347820365E+007  0.12645409435E+002  0.00000000000E+000  0.10000000000E+001  0.00000000000E+000  0.00000000000E+000  0.99999000000E+000  0.99999997151E-005  0.00000000000E+000  0.10000000000E+001  0.00000000000E+000  0.12604373050E+002  0.99996374965E+003  0.30136039093E+000
                    0.79290000000E-001  0.00000000000E+000 -0.10200000000E+003                   1  0.10394276123E+007  0.17611687776E+002  0.00000000000E+000  0.10000000000E+001  0.00000000000E+000  0.00000000000E+000  0.99999000000E+000  0.99999997474E-005  0.00000000000E+000  0.10000000000E+001  0.00000000000E+000  0.12442251792E+002  0.99921395343E+003  0.30131857151E+000