        VARIABLES=                 X                 Y                 Z              HEAT      FLOW_WATER_G        FLOW_AIR_G      FLOW_WATER_L        FLOW_AIR_L     FDIFF_WATER_G       FDIFF_AIR_G     FDIFF_WATER_L       FDIFF_AIR_L
 ZONE T=" 0.9300000E+03 SEC"  I =     2419 
                    0.74998205398E-001  0.00000000000E+000 -0.25000000000E+000 -0.18971644363E-002 -0.11775020300E-010 -0.11087249659E-008 -0.37101049784E-012 -0.59626491409E-017  0.91165317375E-009 -0.91165317375E-009  0.10552386990E-021 -0.10552387002E-021
                    0.74998205398E-001  0.00000000000E+000 -0.75000000000E+000 -0.87312290797E-002 -0.11020441604E-011 -0.10447642267E-009  0.31554817589E-011  0.50627161305E-016 -0.20870497859E-009  0.20870497859E-009  0.24847349662E-023 -0.24847349889E-023
                    0.37597140865E-001  0.00000000000E+000 -0.15000000000E+001  0.52450001669E+002  0.00000000000E+000  0.00000000000E+000  0.00000000000E+000  0.00000000000E+000  0.48531329125E-011 -0.48531329125E-011 -0.26840545470E-019  0.26840545468E-019
                    0.37597140865E-001  0.00000000000E+000 -0.27500000000E+001  0.52657700249E+002  0.00000000000E+000  0.00000000000E+000  0.00000000000E+000  0.00000000000E+000  0.56600095863E-011 -0.56600095863E-011 -0.43629976834E-019  0.43629976837E-019
                    0.37597140865E-001  0.00000000000E+000 -0.47500000000E+001  0.52853258311E+002  0.00000000000E+000  0.00000000000E+000  0.00000000000E+000  0.00000000000E+000  0.48524597775E-011 -0.48524597775E-011 -0.62413194226E-019  0.62413194216E-019
                    0.37597140865E-001  0.00000000000E+000 -0.85000000000E+001  0.52994204474E+002  0.00000000000E+000  0.00000000000E+000  0.00000000000E+000  0.00000000000E+000 -0.41988017961E-011  0.41988017961E-011 -0.13253958883E-018  0.13253958878E-018
                    0.37597140865E-001  0.00000000000E+000 -0.13500000000E+002  0.11389746266E+003  0.00000000000E+000  0.00000000000E+000  0.00000000000E+000  0.00000000000E+000  0.74625876624E-011 -0.74625876624E-011 -0.11031809283E-017  0.11031809283E-017
                    0.37597140865E-001  0.00000000000E+000 -0.18500000000E+002  0.11527279888E+003  0.00000000000E+000  0.00000000000E+000  0.00000000000E+000  0.00000000000E+000 -0.31278030435E-011  0.31278030435E-011 -0.82491884464E-017  0.82491884457E-017
                    0.37597140865E-001  0.00000000000E+000 -0.23500000000E+002  0.15085002779E+003  0.00000000000E+000  0.00000000000E+000  0.00000000000E+000  0.00000000000E+000 -0.12956011655E-010  0.12956011655E-010 -0.32136007458E-016  0.32136007468E-016
                    0.37597140865E-001  0.00000000000E+000 -0.28500000000E+002  0.17606604564E+003  0.00000000000E+000  0.00000000000E+000  0.00000000000E+000  0.00000000000E+000 -0.34147570061E-009  0.34147570061E-009 -0.49007070101E-015  0.49007070101E-015
                    0.37597140865E-001  0.00000000000E+000 -0.33500000000E+002  0.20866308018E+003  0.00000000000E+000  0.00000000000E+000  0.00000000000E+000  0.00000000000E+000 -0.00000000000E+000  0.00000000000E+000 -0.60011626026E-014  0.60011626026E-014
                    0.37597140865E-001  0.00000000000E+000 -0.38500000000E+002  0.20889769094E+003  0.00000000000E+000  0.00000000000E+000  0.00000000000E+000  0.00000000000E+000 -0.00000000000E+000  0.00000000000E+000 -0.77785569058E-014  0.77785569059E-014
                    0.37597140865E-001  0.00000000000E+000 -0.42250000000E+002  0.57254377197E+002  0.00000000000E+000  0.00000000000E+000  0.00000000000E+000  0.00000000000E+000 -0.00000000000E+000  0.00000000000E+000 -0.43323646325E-014  0.43323646325E-014
                    0.37597140865E-001  0.00000000000E+000 -0.44250000000E+002  0.56978080518E+002  0.00000000000E+000  0.00000000000E+000  0.00000000000E+000  0.00000000000E+000 -0.00000000000E+000  0.00000000000E+000 -0.27514460281E-014  0.27514460281E-014
                    0.37597140865E-001  0.00000000000E+000 -0.45500000000E+002  0.56735373630E+002  0.00000000000E+000  0.00000000000E+000  0.00000000000E+000  0.00000000000E+000 -0.00000000000E+000  0.00000000000E+000 -0.18959508630E-014  0.18959508630E-014
                    0.37597140865E-001  0.00000000000E+000 -0.46500000000E+002  0.56798751637E+002  0.00000000000E+000  0.00000000000E+000  0.00000000000E+000  0.00000000000E+000 -0.00000000000E+000  0.00000000000E+000 -0.19406161828E-014  0.19406161828E-014
                    0.37597140865E-001  0.00000000000E+000 -0.47500000000E+002  0.56851560715E+002  0.00000000000E+000  0.00000000000E+000  0.00000000000E+000  0.00000000000E+000 -0.00000000000E+000  0.00000000000E+000 -0.19833304912E-014  0.19833304912E-014
                    0.37597140865E-001  0.00000000000E+000 -0.48500000000E+002  0.56794519875E+002  0.00000000000E+000  0.00000000000E+000  0.00000000000E+000  0.00000000000E+000 -0.00000000000E+000  0.00000000000E+000 -0.20256692257E-014  0.20256692257E-014
                    0.37597140865E-001  0.00000000000E+000 -0.49500000000E+002  0.56812046039E+002  0.00000000000E+000  0.00000000000E+000  0.00000000000E+000  0.00000000000E+000 -0.00000000000E+000  0.00000000000E+000 -0.20681050690E-014  0.20681050690E-014
                    0.37597140865E-001  0.00000000000E+000 -0.50500000000E+002  0.56878063150E+002  0.00000000000E+000  0.00000000000E+000  0.00000000000E+000  0.00000000000E+000 -0.00000000000E+000  0.00000000000E+000 -0.21123701730E-014  0.21123701730E-014
                    0.37597140865E-001  0.00000000000E+000 -0.51500000000E+002  0.66349129905E+002  0.00000000000E+000  0.00000000000E+000  0.00000000000E+000  0.00000000000E+000 -0.00000000000E+000 -0.00000000000E+000 -0.11362791571E-014  0.11362791571E-014
                    0.37597140865E-001  0.00000000000E+000 -0.52500000000E+002  0.66334926194E+002  0.00000000000E+000  0.00000000000E+000  0.00000000000E+000  0.00000000000E+000 -0.00000000000E+000 -0.00000000000E+000 -0.92557705036E-015  0.92557705035E-015
                    0.37597140865E-001  0.00000000000E+000 -0.53500000000E+002  0.66329534911E+002  0.00000000000E+000  0.00000000000E+000  0.00000000000E+000  0.00000000000E+000 -0.00000000000E+000 -0.00000000000E+000 -0.83708057644E-015  0.83708057645E-015
                    0.37597140865E-001  0.00000000000E+000 -0.54500000000E+002  0.66337014758E+002  0.00000000000E+000  0.00000000000E+000  0.00000000000E+000  0.00000000000E+000 -0.00000000000E+000 -0.00000000000E+000 -0.85505280934E-015  0.85505280932E-015
                    0.37597140865E-001  0.00000000000E+000 -0.55500000000E+002  0.66322443766E+002  0.00000000000E+000  0.00000000000E+000  0.00000000000E+000  0.00000000000E+000 -0.00000000000E+000 -0.00000000000E+000 -0.88912317794E-015  0.88912317792E-015
                    0.37597140865E-001  0.00000000000E+000 -0.56500000000E+002  0.66298790705E+002  0.00000000000E+000  0.00000000000E+000  0.00000000000E+000  0.00000000000E+000 -0.00000000000E+000 -0.00000000000E+000 -0.92734449420E-015  0.92734449424E-015
                    0.37597140865E-001  0.00000000000E+000 -0.57750000000E+002  0.66283828362E+002  0.00000000000E+000  0.00000000000E+000  0.00000000000E+000  0.00000000000E+000 -0.00000000000E+000 -0.00000000000E+000 -0.14390539021E-014  0.14390539022E-014
                    0.37597140865E-001  0.00000000000E+000 -0.59750000000E+002  0.66312726286E+002  0.00000000000E+000  0.00000000000E+000  0.00000000000E+000  0.00000000000E+000 -0.00000000000E+000 -0.00000000000E+000 -0.24004085133E-014  0.24004085133E-014
                    0.37597140865E-001  0.00000000000E+000 -0.63500000000E+002  0.33891203576E+003  0.00000000000E+000  0.00000000000E+000  0.00000000000E+000  0.00000000000E+000 -0.00000000000E+000 -0.00000000000E+000 -0.49168837514E-014  0.49168837514E-014
                    0.37597140865E-001  0.00000000000E+000 -0.68500000000E+002  0.33888445527E+003  0.00000000000E+000  0.00000000000E+000  0.00000000000E+000  0.00000000000E+000 -0.00000000000E+000 -0.00000000000E+000 -0.47526688176E-014  0.47526688176E-014
                    0.37597140865E-001  0.00000000000E+000 -0.76000000000E+002  0.47646641372E+003  0.00000000000E+000  0.00000000000E+000  0.00000000000E+000  0.00000000000E+000 -0.00000000000E+000 -0.00000000000E+000 -0.84098751809E-014  0.84098751812E-014
                    0.37597140865E-001  0.00000000000E+000 -0.86000000000E+002  0.49349679163E+003  0.00000000000E+000  0.00000000000E+000  0.00000000000E+000  0.00000000000E+000 -0.00000000000E+000 -0.00000000000E+000 -0.69085817417E-014  0.69085817417E-014
                    0.37597140865E-001  0.00000000000E+000 -0.93500000000E+002  0.28060228460E+003  0.00000000000E+000  0.00000000000E+000  0.00000000000E+000  0.00000000000E+000 -0.00000000000E+000 -0.00000000000E+000 -0.29916464883E-014  0.29916464882E-014
                    0.37597140865E-001  0.00000000000E+000 -0.97500000000E+002  0.28107665339E+003  0.00000000000E+000  0.00000000000E+000  0.00000000000E+000  0.00000000000E+000 -0.00000000000E+000 -0.00000000000E+000 -0.19141127458E-014  0.19141127457E-014
                    0.37597140865E-001  0.00000000000E+000 -0.10000000000E+003  0.28105198633E+003  0.00000000000E+000  0.00000000000E+000  0.00000000000E+000  0.00000000000E+000 -0.00000000000E+000 -0.00000000000E+000 -0.14555809187E-014  0.14555809187E-014
                    0.74998205398E-001  0.00000000000E+000 -0.10200000000E+003  0.95794268392E+000  0.00000000000E+000  0.00000000000E+000  0.12465968012E-004  0.12466092358E-009  0.00000000000E+000  0.00000000000E+000  0.00000000000E+000 -0.61716791374E-025
                    0.74998205398E-001  0.00000000000E+000 -0.10500000000E+003  0.24256559003E-001  0.00000000000E+000  0.00000000000E+000  0.32896823336E-006  0.32897151477E-011  0.00000000000E+000  0.00000000000E+000  0.00000000000E+000  0.15079183547E-025
                    0.74998205398E-001  0.00000000000E+000 -0.11100000000E+003 -0.51055474948E-001  0.00000000000E+000  0.00000000000E+000 -0.67181015360E-006 -0.67181685480E-011  0.00000000000E+000  0.00000000000E+000  0.00000000000E+000  0.12980198888E-023
                    0.74998205398E-001  0.00000000000E+000 -0.12300000000E+003 -0.33645800220E+001  0.00000000000E+000  0.00000000000E+000 -0.43646953929E-004 -0.43647389300E-009  0.00000000000E+000  0.00000000000E+000  0.40281723393E-022 -0.25893988695E-022
                    0.74998205398E-001  0.00000000000E+000 -0.14700000000E+003 -0.10289586957E+001  0.00000000000E+000  0.00000000000E+000 -0.12916880859E-004 -0.12917009703E-009  0.00000000000E+000  0.00000000000E+000  0.00000000000E+000  0.22497169041E-023
                    0.74998205398E-001  0.00000000000E+000 -0.19500000000E+003  0.24122740463E+000  0.00000000000E+000  0.00000000000E+000  0.28746580781E-005  0.28746867523E-010  0.00000000000E+000  0.00000000000E+000  0.00000000000E+000  0.00000000000E+000
                    0.83584331342E-001  0.00000000000E+000 -0.25000000000E+000 -0.12498295502E-002 -0.21435091900E-010 -0.20126661718E-008 -0.28588173622E-012 -0.45808320563E-017 -0.31969893108E-011  0.31969893108E-011  0.22053559470E-026 -0.22052173061E-026
                    0.83584331342E-001  0.00000000000E+000 -0.75000000000E+000  0.29992934360E-001 -0.29326381438E-012 -0.27819927134E-010  0.29526532601E-011  0.47372893982E-016  0.99277456203E-010 -0.99277456203E-010  0.49312635495E-025 -0.49312445722E-025
                    0.83584331342E-001  0.00000000000E+000 -0.15000000000E+001  0.43724287677E+002  0.58744513292E-009  0.93474381732E-007 -0.90494735294E-008 -0.14647857682E-012  0.87280079812E-007 -0.87280079812E-007  0.12579785186E-021 -0.12579785173E-021
                    0.83584331342E-001  0.00000000000E+000 -0.27500000000E+001  0.43979608312E+002  0.81861315437E-009  0.10940645027E-006 -0.24722839580E-007 -0.40050955234E-012  0.10311461896E-006 -0.10311461896E-006  0.27011878212E-021 -0.27011878199E-021
                    0.83584331342E-001  0.00000000000E+000 -0.47500000000E+001  0.44170790028E+002  0.10748344679E-008  0.12435609726E-006 -0.41626337572E-007 -0.67616551946E-012  0.11799676211E-006 -0.11799676211E-006  0.56707978892E-021 -0.56707977953E-021
                    0.83584331342E-001  0.00000000000E+000 -0.85000000000E+001  0.44286666909E+002  0.13062264014E-008  0.13568955975E-006 -0.74594421439E-007 -0.12209931016E-011  0.12932333341E-006 -0.12932333341E-006  0.14273196572E-020 -0.14273196731E-020
                    0.83584331342E-001  0.00000000000E+000 -0.13500000000E+002  0.85668317337E+002  0.21540822825E-008  0.24297254013E-006 -0.15822712800E-006 -0.26338627431E-011  0.22210841307E-006 -0.22210841307E-006  0.12483321800E-019 -0.12483321797E-019
                    0.83584331342E-001  0.00000000000E+000 -0.18500000000E+002  0.86297570704E+002  0.19769766407E-008  0.22296683166E-006 -0.14959257032E-006 -0.25431611343E-011  0.20110451344E-006 -0.20110451344E-006  0.12044127574E-018 -0.12044127367E-018
                    0.83584331342E-001  0.00000000000E+000 -0.23500000000E+002  0.11172823836E+003  0.17386031052E-008  0.20460199673E-006 -0.27788066258E-007 -0.48852712379E-012  0.16478147447E-006 -0.16478147447E-006  0.43002733580E-017 -0.43002734289E-017
                    0.83584331342E-001  0.00000000000E+000 -0.28500000000E+002  0.12214976623E+003  0.95989148544E-011  0.21701381365E-008  0.32627248542E-005  0.11905908140E-009  0.66936623415E-010 -0.66936623415E-010  0.76735994338E-015 -0.76735992256E-015
                    0.83584331342E-001  0.00000000000E+000 -0.33500000000E+002  0.14458834698E+003  0.00000000000E+000  0.00000000000E+000  0.44472799367E-005  0.28107665104E-009  0.00000000000E+000 -0.00000000000E+000  0.15050487822E-014 -0.15050487791E-014
                    0.83584331342E-001  0.00000000000E+000 -0.38500000000E+002  0.14458881299E+003  0.00000000000E+000  0.00000000000E+000  0.31589348118E-005  0.25862726811E-009  0.00000000000E+000 -0.00000000000E+000  0.14603937848E-014 -0.14603937977E-014
                    0.83584331342E-001  0.00000000000E+000 -0.42250000000E+002  0.46167125493E+002  0.00000000000E+000  0.00000000000E+000  0.41665001610E-006  0.38218473274E-010  0.00000000000E+000 -0.00000000000E+000  0.35197265888E-015 -0.35197264671E-015
                    0.83584331342E-001  0.00000000000E+000 -0.44250000000E+002  0.45884371321E+002  0.00000000000E+000  0.00000000000E+000  0.26634426116E-006  0.25765010498E-010  0.00000000000E+000 -0.00000000000E+000  0.38391266116E-015 -0.38391264963E-015
                    0.83584331342E-001  0.00000000000E+000 -0.45500000000E+002  0.45638038741E+002  0.00000000000E+000  0.00000000000E+000  0.14645429274E-006  0.14619632705E-010  0.00000000000E+000 -0.00000000000E+000  0.38290147529E-015 -0.38290147368E-015
                    0.83584331342E-001  0.00000000000E+000 -0.46500000000E+002  0.45705993688E+002  0.00000000000E+000  0.00000000000E+000  0.12929559227E-006  0.13222801178E-010  0.00000000000E+000 -0.00000000000E+000  0.36888591354E-015 -0.36888591059E-015
                    0.83584331342E-001  0.00000000000E+000 -0.47500000000E+002  0.45740179739E+002  0.00000000000E+000  0.00000000000E+000  0.13986249516E-006  0.14644945538E-010  0.00000000000E+000 -0.00000000000E+000  0.36899566123E-015 -0.36899565397E-015
                    0.83584331342E-001  0.00000000000E+000 -0.48500000000E+002  0.45697923515E+002  0.00000000000E+000  0.00000000000E+000  0.17283388544E-006  0.18518254366E-010  0.00000000000E+000 -0.00000000000E+000  0.32311345787E-015 -0.32311345384E-015
                    0.83584331342E-001  0.00000000000E+000 -0.49500000000E+002  0.45715535614E+002  0.00000000000E+000  0.00000000000E+000  0.21208507244E-006  0.23235124930E-010  0.00000000000E+000 -0.00000000000E+000  0.34895670789E-015 -0.34895670292E-015
                    0.83584331342E-001  0.00000000000E+000 -0.50500000000E+002  0.45752532711E+002  0.00000000000E+000  0.00000000000E+000  0.25358393099E-006  0.28372610793E-010  0.00000000000E+000 -0.00000000000E+000  0.29575552156E-015 -0.29575552420E-015
                    0.83584331342E-001  0.00000000000E+000 -0.51500000000E+002  0.48465966537E+002  0.00000000000E+000  0.00000000000E+000  0.33984720425E-006  0.79508064367E-011  0.00000000000E+000  0.00000000000E+000 -0.24593459131E-014  0.24593459207E-014
                    0.83584331342E-001  0.00000000000E+000 -0.52500000000E+002  0.48451825097E+002  0.00000000000E+000  0.00000000000E+000  0.35089335241E-006  0.49114239297E-011  0.00000000000E+000  0.00000000000E+000 -0.18618364009E-015  0.18618363369E-015
                    0.83584331342E-001  0.00000000000E+000 -0.53500000000E+002  0.48445181088E+002  0.00000000000E+000  0.00000000000E+000  0.35174032363E-006  0.38252800880E-011  0.00000000000E+000  0.00000000000E+000 -0.27955124442E-017  0.27955145922E-017
                    0.83584331342E-001  0.00000000000E+000 -0.54500000000E+002  0.48452509691E+002  0.00000000000E+000  0.00000000000E+000  0.34903512668E-006  0.35416675397E-011  0.00000000000E+000  0.00000000000E+000 -0.57609153894E-017  0.57609162194E-017
                    0.83584331342E-001  0.00000000000E+000 -0.55500000000E+002  0.48436316064E+002  0.00000000000E+000  0.00000000000E+000  0.34456320182E-006  0.34522839163E-011  0.00000000000E+000  0.00000000000E+000 -0.10891749605E-018  0.10892454685E-018
                    0.83584331342E-001  0.00000000000E+000 -0.56500000000E+002  0.48399049949E+002  0.00000000000E+000  0.00000000000E+000  0.32031446464E-006  0.32039430639E-011  0.00000000000E+000  0.00000000000E+000 -0.49369314673E-020  0.49346502470E-020
                    0.83584331342E-001  0.00000000000E+000 -0.57750000000E+002  0.48439172370E+002  0.00000000000E+000  0.00000000000E+000  0.42711390452E-006  0.42712371989E-011  0.00000000000E+000  0.00000000000E+000 -0.76920067192E-020  0.76961981120E-020
                    0.83584331342E-001  0.00000000000E+000 -0.59750000000E+002  0.48458459212E+002  0.00000000000E+000  0.00000000000E+000  0.59520782250E-006  0.59521392200E-011  0.00000000000E+000  0.00000000000E+000 -0.12850270775E-019  0.12844101097E-019
                    0.83584331342E-001  0.00000000000E+000 -0.63500000000E+002  0.17865209510E+003  0.00000000000E+000  0.00000000000E+000  0.28430735541E-005  0.28431019133E-010  0.00000000000E+000  0.00000000000E+000 -0.26152063780E-019  0.26174256358E-019
                    0.83584331342E-001  0.00000000000E+000 -0.68500000000E+002  0.17862605108E+003  0.00000000000E+000  0.00000000000E+000  0.27864053695E-005  0.27864331635E-010  0.00000000000E+000  0.00000000000E+000 -0.25063434600E-019  0.25056655112E-019
                    0.83584331342E-001  0.00000000000E+000 -0.76000000000E+002  0.25453817988E+003  0.00000000000E+000  0.00000000000E+000  0.42243557555E-005  0.42243978928E-010  0.00000000000E+000  0.00000000000E+000 -0.45636813010E-019  0.45640214849E-019
                    0.83584331342E-001  0.00000000000E+000 -0.86000000000E+002  0.26150395481E+003  0.00000000000E+000  0.00000000000E+000  0.41337792051E-005  0.41338204388E-010  0.00000000000E+000  0.00000000000E+000 -0.36542868672E-019  0.36536370488E-019
                    0.83584331342E-001  0.00000000000E+000 -0.93500000000E+002  0.14648050227E+003  0.00000000000E+000  0.00000000000E+000  0.22538353788E-005  0.22538578604E-010  0.00000000000E+000  0.00000000000E+000 -0.15963953704E-019  0.16010739664E-019
                    0.83584331342E-001  0.00000000000E+000 -0.97500000000E+002  0.14678628372E+003  0.00000000000E+000  0.00000000000E+000  0.18567944298E-005  0.18568129510E-010  0.00000000000E+000  0.00000000000E+000 -0.99628928898E-020  0.99883313793E-020
                    0.83584331342E-001  0.00000000000E+000 -0.10000000000E+003  0.14668877878E+003  0.00000000000E+000  0.00000000000E+000  0.15306607335E-005  0.15306760017E-010  0.00000000000E+000  0.00000000000E+000 -0.74548748692E-020  0.74723206640E-020
                    0.83584331342E-001  0.00000000000E+000 -0.10200000000E+003  0.10444426404E+001  0.00000000000E+000  0.00000000000E+000  0.12839695119E-004  0.12839823193E-009  0.00000000000E+000  0.00000000000E+000  0.00000000000E+000  0.31021624604E-024
                    0.83584331342E-001  0.00000000000E+000 -0.10500000000E+003  0.30557732569E-001  0.00000000000E+000  0.00000000000E+000  0.40777712223E-006  0.40778118974E-011  0.00000000000E+000  0.00000000000E+000  0.00000000000E+000 -0.52947394427E-025
                    0.83584331342E-001  0.00000000000E+000 -0.11100000000E+003 -0.63428356025E-001  0.00000000000E+000  0.00000000000E+000 -0.83461689381E-006 -0.83462521897E-011  0.00000000000E+000  0.00000000000E+000  0.00000000000E+000 -0.72858670016E-023
                    0.83584331342E-001  0.00000000000E+000 -0.12300000000E+003 -0.41798679354E+001  0.00000000000E+000  0.00000000000E+000 -0.54220696388E-004 -0.54221237231E-009  0.00000000000E+000  0.00000000000E+000 -0.20381703543E-021  0.28309718477E-021
                    0.83584331342E-001  0.00000000000E+000 -0.14700000000E+003 -0.12808932655E+001  0.00000000000E+000  0.00000000000E+000 -0.16043321525E-004 -0.16043481555E-009  0.00000000000E+000  0.00000000000E+000  0.00000000000E+000 -0.13752407841E-022
                    0.83584331342E-001  0.00000000000E+000 -0.19500000000E+003  0.29961769252E+000  0.00000000000E+000  0.00000000000E+000  0.35704833016E-005  0.35705189166E-010  0.00000000000E+000  0.00000000000E+000  0.00000000000E+000  0.00000000000E+000
                    0.93414398785E-001  0.00000000000E+000 -0.25000000000E+000 -0.38438799004E-003 -0.21292826922E-010 -0.19993119140E-008 -0.30670812835E-012 -0.49145438364E-017 -0.30346210670E-012  0.30346210670E-012  0.30709142402E-026 -0.30709028032E-026
                    0.93414398785E-001  0.00000000000E+000 -0.75000000000E+000  0.73906069527E-001 -0.19741596633E-011 -0.18726370878E-009  0.33900990879E-011  0.54391214462E-016  0.24470530122E-009 -0.24470530122E-009  0.12243058552E-024 -0.12243081306E-024
                    0.93414398785E-001  0.00000000000E+000 -0.15000000000E+001  0.41491482914E+002  0.62105853371E-009  0.94494299136E-007  0.22833969933E-009  0.36926626501E-014  0.86762355334E-007 -0.86762355334E-007  0.90319741901E-022 -0.90319742718E-022
                    0.93414398785E-001  0.00000000000E+000 -0.27500000000E+001  0.41798004504E+002  0.84095136741E-009  0.10912968699E-006  0.30066313049E-009  0.48673038216E-014  0.10123752094E-006 -0.10123752094E-006  0.19284618597E-021 -0.19284618389E-021
                    0.93414398785E-001  0.00000000000E+000 -0.47500000000E+001  0.41971984430E+002  0.10764385154E-008  0.12239144434E-006 -0.34363526210E-008 -0.55805592329E-013  0.11443840401E-006 -0.11443840401E-006  0.42022510043E-021 -0.42022509970E-021
                    0.93414398785E-001  0.00000000000E+000 -0.85000000000E+001  0.42067414104E+002  0.12804838575E-008  0.13188215934E-006 -0.11111143264E-007 -0.18184779476E-012  0.12408811107E-006 -0.12408811107E-006  0.12186239014E-020 -0.12186238674E-020
                    0.93414398785E-001  0.00000000000E+000 -0.13500000000E+002  0.78082488416E+002  0.20899498942E-008  0.23207137405E-006 -0.97011198719E-007 -0.16144812108E-011  0.20586050461E-006 -0.20586050461E-006  0.10851453959E-019 -0.10851453787E-019
                    0.93414398785E-001  0.00000000000E+000 -0.18500000000E+002  0.78327234645E+002  0.19223722376E-008  0.21359467144E-006 -0.93541318093E-007 -0.15899026675E-011  0.18518742157E-006 -0.18518742157E-006  0.11024796849E-018 -0.11024797071E-018
                    0.93414398785E-001  0.00000000000E+000 -0.23500000000E+002  0.10001723763E+003  0.18636011434E-008  0.21574476465E-006  0.77743280733E-007  0.13661359364E-011  0.14982665239E-006 -0.14982665239E-006  0.39034789825E-017 -0.39034789744E-017
                    0.93414398785E-001  0.00000000000E+000 -0.28500000000E+002  0.10422952209E+003  0.83031946581E-011  0.18577041386E-008  0.43890689928E-005  0.16014869164E-009  0.57698344590E-010 -0.57698344590E-010  0.66064053909E-015 -0.66064053878E-015
                    0.93414398785E-001  0.00000000000E+000 -0.33500000000E+002  0.12320163378E+003  0.00000000000E+000  0.00000000000E+000  0.87971894947E-005  0.55597539910E-009  0.00000000000E+000 -0.00000000000E+000  0.13051763144E-014 -0.13051762921E-014
                    0.93414398785E-001  0.00000000000E+000 -0.38500000000E+002  0.12303001626E+003  0.00000000000E+000  0.00000000000E+000  0.59753675583E-005  0.48919789457E-009  0.00000000000E+000 -0.00000000000E+000  0.12758529231E-014 -0.12758529368E-014
                    0.93414398785E-001  0.00000000000E+000 -0.42250000000E+002  0.41915455795E+002  0.00000000000E+000  0.00000000000E+000  0.74728705598E-006  0.68546015918E-010  0.00000000000E+000 -0.00000000000E+000  0.38361637008E-015 -0.38361636053E-015
                    0.93414398785E-001  0.00000000000E+000 -0.44250000000E+002  0.41661982524E+002  0.00000000000E+000  0.00000000000E+000  0.42639578302E-006  0.41246522401E-010  0.00000000000E+000 -0.00000000000E+000  0.43106884504E-015 -0.43106885883E-015
                    0.93414398785E-001  0.00000000000E+000 -0.45500000000E+002  0.41445897711E+002  0.00000000000E+000  0.00000000000E+000  0.18204884454E-006  0.18172095922E-010  0.00000000000E+000 -0.00000000000E+000  0.41181501608E-015 -0.41181502149E-015
                    0.93414398785E-001  0.00000000000E+000 -0.46500000000E+002  0.41515689419E+002  0.00000000000E+000  0.00000000000E+000  0.14557294542E-006  0.14886868920E-010  0.00000000000E+000 -0.00000000000E+000  0.41899436777E-015 -0.41899436356E-015
                    0.93414398785E-001  0.00000000000E+000 -0.47500000000E+002  0.41526069415E+002  0.00000000000E+000  0.00000000000E+000  0.17293599773E-006  0.18107395907E-010  0.00000000000E+000 -0.00000000000E+000  0.40140235920E-015 -0.40140235833E-015
                    0.93414398785E-001  0.00000000000E+000 -0.48500000000E+002  0.41509146599E+002  0.00000000000E+000  0.00000000000E+000  0.24740839302E-006  0.26507574907E-010  0.00000000000E+000 -0.00000000000E+000  0.40361290780E-015 -0.40361290565E-015
                    0.93414398785E-001  0.00000000000E+000 -0.49500000000E+002  0.41527065330E+002  0.00000000000E+000  0.00000000000E+000  0.33993370056E-006  0.37240451788E-010  0.00000000000E+000 -0.00000000000E+000  0.37703668411E-015 -0.37703669338E-015
                    0.93414398785E-001  0.00000000000E+000 -0.50500000000E+002  0.41539322030E+002  0.00000000000E+000  0.00000000000E+000  0.44230427405E-006  0.49486544975E-010  0.00000000000E+000 -0.00000000000E+000  0.32242707805E-015 -0.32242707610E-015
                    0.93414398785E-001  0.00000000000E+000 -0.51500000000E+002  0.41989372168E+002  0.00000000000E+000  0.00000000000E+000  0.58896350020E-006  0.13784494406E-010  0.00000000000E+000  0.00000000000E+000 -0.10600263238E-014  0.10600263160E-014
                    0.93414398785E-001  0.00000000000E+000 -0.52500000000E+002  0.41975667492E+002  0.00000000000E+000  0.00000000000E+000  0.61375422021E-006  0.85907621055E-011  0.00000000000E+000  0.00000000000E+000 -0.17830231956E-016  0.17830241048E-016
                    0.93414398785E-001  0.00000000000E+000 -0.53500000000E+002  0.41968912174E+002  0.00000000000E+000  0.00000000000E+000  0.61504580273E-006  0.66886454717E-011  0.00000000000E+000  0.00000000000E+000  0.29179909641E-016 -0.29179912030E-016
                    0.93414398785E-001  0.00000000000E+000 -0.54500000000E+002  0.41974750414E+002  0.00000000000E+000  0.00000000000E+000  0.60818084036E-006  0.61712245366E-011  0.00000000000E+000  0.00000000000E+000  0.10735610220E-018 -0.10735631785E-018
                    0.93414398785E-001  0.00000000000E+000 -0.55500000000E+002  0.41958857992E+002  0.00000000000E+000  0.00000000000E+000  0.59722019603E-006  0.59837320191E-011  0.00000000000E+000  0.00000000000E+000 -0.10170339099E-018  0.10170008340E-018
                    0.93414398785E-001  0.00000000000E+000 -0.56500000000E+002  0.41903644490E+002  0.00000000000E+000  0.00000000000E+000  0.54318059608E-006  0.54331603893E-011  0.00000000000E+000  0.00000000000E+000 -0.10222960033E-018  0.10223021435E-018
                    0.93414398785E-001  0.00000000000E+000 -0.57750000000E+002  0.41980504864E+002  0.00000000000E+000  0.00000000000E+000  0.75562283692E-006  0.75564020164E-011  0.00000000000E+000  0.00000000000E+000 -0.18726349352E-022  0.35163338491E-023
                    0.93414398785E-001  0.00000000000E+000 -0.59750000000E+002  0.42002552248E+002  0.00000000000E+000  0.00000000000E+000  0.11119713953E-005  0.11119827904E-010  0.00000000000E+000  0.00000000000E+000  0.00000000000E+000  0.15415113113E-023
                    0.93414398785E-001  0.00000000000E+000 -0.63500000000E+002  0.12588373009E+003  0.00000000000E+000  0.00000000000E+000  0.43454492264E-005  0.43454925716E-010  0.00000000000E+000  0.00000000000E+000  0.00000000000E+000 -0.50859166771E-023
                    0.93414398785E-001  0.00000000000E+000 -0.68500000000E+002  0.12585317940E+003  0.00000000000E+000  0.00000000000E+000  0.41946141210E-005  0.41946559616E-010  0.00000000000E+000  0.00000000000E+000  0.00000000000E+000 -0.16944652329E-022
                    0.93414398785E-001  0.00000000000E+000 -0.76000000000E+002  0.18141125419E+003  0.00000000000E+000  0.00000000000E+000  0.64309659354E-005  0.64310300833E-010  0.00000000000E+000  0.00000000000E+000  0.00000000000E+000 -0.43544284685E-022
                    0.93414398785E-001  0.00000000000E+000 -0.86000000000E+002  0.18516809595E+003  0.00000000000E+000  0.00000000000E+000  0.60391813233E-005  0.60392415632E-010  0.00000000000E+000  0.00000000000E+000 -0.12473032652E-021  0.19451810137E-021